# vtk DataFile Version 3.0
Lid-Driven Cavity Flow
ASCII
DATASET STRUCTURED_GRID
DIMENSIONS 129 129 1
POINTS 16641 double
0 0 0.0
0.0078125 0 0.0
0.015625 0 0.0
0.0234375 0 0.0
0.03125 0 0.0
0.0390625 0 0.0
0.046875 0 0.0
0.0546875 0 0.0
0.0625 0 0.0
0.0703125 0 0.0
0.078125 0 0.0
0.0859375 0 0.0
0.09375 0 0.0
0.101562 0 0.0
0.109375 0 0.0
0.117188 0 0.0
0.125 0 0.0
0.132812 0 0.0
0.140625 0 0.0
0.148438 0 0.0
0.15625 0 0.0
0.164062 0 0.0
0.171875 0 0.0
0.179688 0 0.0
0.1875 0 0.0
0.195312 0 0.0
0.203125 0 0.0
0.210938 0 0.0
0.21875 0 0.0
0.226562 0 0.0
0.234375 0 0.0
0.242188 0 0.0
0.25 0 0.0
0.257812 0 0.0
0.265625 0 0.0
0.273438 0 0.0
0.28125 0 0.0
0.289062 0 0.0
0.296875 0 0.0
0.304688 0 0.0
0.3125 0 0.0
0.320312 0 0.0
0.328125 0 0.0
0.335938 0 0.0
0.34375 0 0.0
0.351562 0 0.0
0.359375 0 0.0
0.367188 0 0.0
0.375 0 0.0
0.382812 0 0.0
0.390625 0 0.0
0.398438 0 0.0
0.40625 0 0.0
0.414062 0 0.0
0.421875 0 0.0
0.429688 0 0.0
0.4375 0 0.0
0.445312 0 0.0
0.453125 0 0.0
0.460938 0 0.0
0.46875 0 0.0
0.476562 0 0.0
0.484375 0 0.0
0.492188 0 0.0
0.5 0 0.0
0.507812 0 0.0
0.515625 0 0.0
0.523438 0 0.0
0.53125 0 0.0
0.539062 0 0.0
0.546875 0 0.0
0.554688 0 0.0
0.5625 0 0.0
0.570312 0 0.0
0.578125 0 0.0
0.585938 0 0.0
0.59375 0 0.0
0.601562 0 0.0
0.609375 0 0.0
0.617188 0 0.0
0.625 0 0.0
0.632812 0 0.0
0.640625 0 0.0
0.648438 0 0.0
0.65625 0 0.0
0.664062 0 0.0
0.671875 0 0.0
0.679688 0 0.0
0.6875 0 0.0
0.695312 0 0.0
0.703125 0 0.0
0.710938 0 0.0
0.71875 0 0.0
0.726562 0 0.0
0.734375 0 0.0
0.742188 0 0.0
0.75 0 0.0
0.757812 0 0.0
0.765625 0 0.0
0.773438 0 0.0
0.78125 0 0.0
0.789062 0 0.0
0.796875 0 0.0
0.804688 0 0.0
0.8125 0 0.0
0.820312 0 0.0
0.828125 0 0.0
0.835938 0 0.0
0.84375 0 0.0
0.851562 0 0.0
0.859375 0 0.0
0.867188 0 0.0
0.875 0 0.0
0.882812 0 0.0
0.890625 0 0.0
0.898438 0 0.0
0.90625 0 0.0
0.914062 0 0.0
0.921875 0 0.0
0.929688 0 0.0
0.9375 0 0.0
0.945312 0 0.0
0.953125 0 0.0
0.960938 0 0.0
0.96875 0 0.0
0.976562 0 0.0
0.984375 0 0.0
0.992188 0 0.0
1 0 0.0
0 0.0078125 0.0
0.0078125 0.0078125 0.0
0.015625 0.0078125 0.0
0.0234375 0.0078125 0.0
0.03125 0.0078125 0.0
0.0390625 0.0078125 0.0
0.046875 0.0078125 0.0
0.0546875 0.0078125 0.0
0.0625 0.0078125 0.0
0.0703125 0.0078125 0.0
0.078125 0.0078125 0.0
0.0859375 0.0078125 0.0
0.09375 0.0078125 0.0
0.101562 0.0078125 0.0
0.109375 0.0078125 0.0
0.117188 0.0078125 0.0
0.125 0.0078125 0.0
0.132812 0.0078125 0.0
0.140625 0.0078125 0.0
0.148438 0.0078125 0.0
0.15625 0.0078125 0.0
0.164062 0.0078125 0.0
0.171875 0.0078125 0.0
0.179688 0.0078125 0.0
0.1875 0.0078125 0.0
0.195312 0.0078125 0.0
0.203125 0.0078125 0.0
0.210938 0.0078125 0.0
0.21875 0.0078125 0.0
0.226562 0.0078125 0.0
0.234375 0.0078125 0.0
0.242188 0.0078125 0.0
0.25 0.0078125 0.0
0.257812 0.0078125 0.0
0.265625 0.0078125 0.0
0.273438 0.0078125 0.0
0.28125 0.0078125 0.0
0.289062 0.0078125 0.0
0.296875 0.0078125 0.0
0.304688 0.0078125 0.0
0.3125 0.0078125 0.0
0.320312 0.0078125 0.0
0.328125 0.0078125 0.0
0.335938 0.0078125 0.0
0.34375 0.0078125 0.0
0.351562 0.0078125 0.0
0.359375 0.0078125 0.0
0.367188 0.0078125 0.0
0.375 0.0078125 0.0
0.382812 0.0078125 0.0
0.390625 0.0078125 0.0
0.398438 0.0078125 0.0
0.40625 0.0078125 0.0
0.414062 0.0078125 0.0
0.421875 0.0078125 0.0
0.429688 0.0078125 0.0
0.4375 0.0078125 0.0
0.445312 0.0078125 0.0
0.453125 0.0078125 0.0
0.460938 0.0078125 0.0
0.46875 0.0078125 0.0
0.476562 0.0078125 0.0
0.484375 0.0078125 0.0
0.492188 0.0078125 0.0
0.5 0.0078125 0.0
0.507812 0.0078125 0.0
0.515625 0.0078125 0.0
0.523438 0.0078125 0.0
0.53125 0.0078125 0.0
0.539062 0.0078125 0.0
0.546875 0.0078125 0.0
0.554688 0.0078125 0.0
0.5625 0.0078125 0.0
0.570312 0.0078125 0.0
0.578125 0.0078125 0.0
0.585938 0.0078125 0.0
0.59375 0.0078125 0.0
0.601562 0.0078125 0.0
0.609375 0.0078125 0.0
0.617188 0.0078125 0.0
0.625 0.0078125 0.0
0.632812 0.0078125 0.0
0.640625 0.0078125 0.0
0.648438 0.0078125 0.0
0.65625 0.0078125 0.0
0.664062 0.0078125 0.0
0.671875 0.0078125 0.0
0.679688 0.0078125 0.0
0.6875 0.0078125 0.0
0.695312 0.0078125 0.0
0.703125 0.0078125 0.0
0.710938 0.0078125 0.0
0.71875 0.0078125 0.0
0.726562 0.0078125 0.0
0.734375 0.0078125 0.0
0.742188 0.0078125 0.0
0.75 0.0078125 0.0
0.757812 0.0078125 0.0
0.765625 0.0078125 0.0
0.773438 0.0078125 0.0
0.78125 0.0078125 0.0
0.789062 0.0078125 0.0
0.796875 0.0078125 0.0
0.804688 0.0078125 0.0
0.8125 0.0078125 0.0
0.820312 0.0078125 0.0
0.828125 0.0078125 0.0
0.835938 0.0078125 0.0
0.84375 0.0078125 0.0
0.851562 0.0078125 0.0
0.859375 0.0078125 0.0
0.867188 0.0078125 0.0
0.875 0.0078125 0.0
0.882812 0.0078125 0.0
0.890625 0.0078125 0.0
0.898438 0.0078125 0.0
0.90625 0.0078125 0.0
0.914062 0.0078125 0.0
0.921875 0.0078125 0.0
0.929688 0.0078125 0.0
0.9375 0.0078125 0.0
0.945312 0.0078125 0.0
0.953125 0.0078125 0.0
0.960938 0.0078125 0.0
0.96875 0.0078125 0.0
0.976562 0.0078125 0.0
0.984375 0.0078125 0.0
0.992188 0.0078125 0.0
1 0.0078125 0.0
0 0.015625 0.0
0.0078125 0.015625 0.0
0.015625 0.015625 0.0
0.0234375 0.015625 0.0
0.03125 0.015625 0.0
0.0390625 0.015625 0.0
0.046875 0.015625 0.0
0.0546875 0.015625 0.0
0.0625 0.015625 0.0
0.0703125 0.015625 0.0
0.078125 0.015625 0.0
0.0859375 0.015625 0.0
0.09375 0.015625 0.0
0.101562 0.015625 0.0
0.109375 0.015625 0.0
0.117188 0.015625 0.0
0.125 0.015625 0.0
0.132812 0.015625 0.0
0.140625 0.015625 0.0
0.148438 0.015625 0.0
0.15625 0.015625 0.0
0.164062 0.015625 0.0
0.171875 0.015625 0.0
0.179688 0.015625 0.0
0.1875 0.015625 0.0
0.195312 0.015625 0.0
0.203125 0.015625 0.0
0.210938 0.015625 0.0
0.21875 0.015625 0.0
0.226562 0.015625 0.0
0.234375 0.015625 0.0
0.242188 0.015625 0.0
0.25 0.015625 0.0
0.257812 0.015625 0.0
0.265625 0.015625 0.0
0.273438 0.015625 0.0
0.28125 0.015625 0.0
0.289062 0.015625 0.0
0.296875 0.015625 0.0
0.304688 0.015625 0.0
0.3125 0.015625 0.0
0.320312 0.015625 0.0
0.328125 0.015625 0.0
0.335938 0.015625 0.0
0.34375 0.015625 0.0
0.351562 0.015625 0.0
0.359375 0.015625 0.0
0.367188 0.015625 0.0
0.375 0.015625 0.0
0.382812 0.015625 0.0
0.390625 0.015625 0.0
0.398438 0.015625 0.0
0.40625 0.015625 0.0
0.414062 0.015625 0.0
0.421875 0.015625 0.0
0.429688 0.015625 0.0
0.4375 0.015625 0.0
0.445312 0.015625 0.0
0.453125 0.015625 0.0
0.460938 0.015625 0.0
0.46875 0.015625 0.0
0.476562 0.015625 0.0
0.484375 0.015625 0.0
0.492188 0.015625 0.0
0.5 0.015625 0.0
0.507812 0.015625 0.0
0.515625 0.015625 0.0
0.523438 0.015625 0.0
0.53125 0.015625 0.0
0.539062 0.015625 0.0
0.546875 0.015625 0.0
0.554688 0.015625 0.0
0.5625 0.015625 0.0
0.570312 0.015625 0.0
0.578125 0.015625 0.0
0.585938 0.015625 0.0
0.59375 0.015625 0.0
0.601562 0.015625 0.0
0.609375 0.015625 0.0
0.617188 0.015625 0.0
0.625 0.015625 0.0
0.632812 0.015625 0.0
0.640625 0.015625 0.0
0.648438 0.015625 0.0
0.65625 0.015625 0.0
0.664062 0.015625 0.0
0.671875 0.015625 0.0
0.679688 0.015625 0.0
0.6875 0.015625 0.0
0.695312 0.015625 0.0
0.703125 0.015625 0.0
0.710938 0.015625 0.0
0.71875 0.015625 0.0
0.726562 0.015625 0.0
0.734375 0.015625 0.0
0.742188 0.015625 0.0
0.75 0.015625 0.0
0.757812 0.015625 0.0
0.765625 0.015625 0.0
0.773438 0.015625 0.0
0.78125 0.015625 0.0
0.789062 0.015625 0.0
0.796875 0.015625 0.0
0.804688 0.015625 0.0
0.8125 0.015625 0.0
0.820312 0.015625 0.0
0.828125 0.015625 0.0
0.835938 0.015625 0.0
0.84375 0.015625 0.0
0.851562 0.015625 0.0
0.859375 0.015625 0.0
0.867188 0.015625 0.0
0.875 0.015625 0.0
0.882812 0.015625 0.0
0.890625 0.015625 0.0
0.898438 0.015625 0.0
0.90625 0.015625 0.0
0.914062 0.015625 0.0
0.921875 0.015625 0.0
0.929688 0.015625 0.0
0.9375 0.015625 0.0
0.945312 0.015625 0.0
0.953125 0.015625 0.0
0.960938 0.015625 0.0
0.96875 0.015625 0.0
0.976562 0.015625 0.0
0.984375 0.015625 0.0
0.992188 0.015625 0.0
1 0.015625 0.0
0 0.0234375 0.0
0.0078125 0.0234375 0.0
0.015625 0.0234375 0.0
0.0234375 0.0234375 0.0
0.03125 0.0234375 0.0
0.0390625 0.0234375 0.0
0.046875 0.0234375 0.0
0.0546875 0.0234375 0.0
0.0625 0.0234375 0.0
0.0703125 0.0234375 0.0
0.078125 0.0234375 0.0
0.0859375 0.0234375 0.0
0.09375 0.0234375 0.0
0.101562 0.0234375 0.0
0.109375 0.0234375 0.0
0.117188 0.0234375 0.0
0.125 0.0234375 0.0
0.132812 0.0234375 0.0
0.140625 0.0234375 0.0
0.148438 0.0234375 0.0
0.15625 0.0234375 0.0
0.164062 0.0234375 0.0
0.171875 0.0234375 0.0
0.179688 0.0234375 0.0
0.1875 0.0234375 0.0
0.195312 0.0234375 0.0
0.203125 0.0234375 0.0
0.210938 0.0234375 0.0
0.21875 0.0234375 0.0
0.226562 0.0234375 0.0
0.234375 0.0234375 0.0
0.242188 0.0234375 0.0
0.25 0.0234375 0.0
0.257812 0.0234375 0.0
0.265625 0.0234375 0.0
0.273438 0.0234375 0.0
0.28125 0.0234375 0.0
0.289062 0.0234375 0.0
0.296875 0.0234375 0.0
0.304688 0.0234375 0.0
0.3125 0.0234375 0.0
0.320312 0.0234375 0.0
0.328125 0.0234375 0.0
0.335938 0.0234375 0.0
0.34375 0.0234375 0.0
0.351562 0.0234375 0.0
0.359375 0.0234375 0.0
0.367188 0.0234375 0.0
0.375 0.0234375 0.0
0.382812 0.0234375 0.0
0.390625 0.0234375 0.0
0.398438 0.0234375 0.0
0.40625 0.0234375 0.0
0.414062 0.0234375 0.0
0.421875 0.0234375 0.0
0.429688 0.0234375 0.0
0.4375 0.0234375 0.0
0.445312 0.0234375 0.0
0.453125 0.0234375 0.0
0.460938 0.0234375 0.0
0.46875 0.0234375 0.0
0.476562 0.0234375 0.0
0.484375 0.0234375 0.0
0.492188 0.0234375 0.0
0.5 0.0234375 0.0
0.507812 0.0234375 0.0
0.515625 0.0234375 0.0
0.523438 0.0234375 0.0
0.53125 0.0234375 0.0
0.539062 0.0234375 0.0
0.546875 0.0234375 0.0
0.554688 0.0234375 0.0
0.5625 0.0234375 0.0
0.570312 0.0234375 0.0
0.578125 0.0234375 0.0
0.585938 0.0234375 0.0
0.59375 0.0234375 0.0
0.601562 0.0234375 0.0
0.609375 0.0234375 0.0
0.617188 0.0234375 0.0
0.625 0.0234375 0.0
0.632812 0.0234375 0.0
0.640625 0.0234375 0.0
0.648438 0.0234375 0.0
0.65625 0.0234375 0.0
0.664062 0.0234375 0.0
0.671875 0.0234375 0.0
0.679688 0.0234375 0.0
0.6875 0.0234375 0.0
0.695312 0.0234375 0.0
0.703125 0.0234375 0.0
0.710938 0.0234375 0.0
0.71875 0.0234375 0.0
0.726562 0.0234375 0.0
0.734375 0.0234375 0.0
0.742188 0.0234375 0.0
0.75 0.0234375 0.0
0.757812 0.0234375 0.0
0.765625 0.0234375 0.0
0.773438 0.0234375 0.0
0.78125 0.0234375 0.0
0.789062 0.0234375 0.0
0.796875 0.0234375 0.0
[...]
POINT_DATA 16641
VECTORS velocity double
0 0 0.0
0 0 0.0
0 0 0.0
0 0 0.0
0 0 0.0
0 0 0.0
0 0 0.0
0 0 0.0
0 0 0.0
0 0 0.0
0 0 0.0
0 0 0.0
0 0 0.0
0 0 0.0
0 0 0.0
0 0 0.0
0 0 0.0
0 0 0.0
0 0 0.0
0 0 0.0
0 0 0.0
0 0 0.0
0 0 0.0
0 0 0.0
0 0 0.0
0 0 0.0
0 0 0.0
0 0 0.0
0 0 0.0
0 0 0.0
0 0 0.0
0 0 0.0
0 0 0.0
0 0 0.0
0 0 0.0
0 0 0.0
0 0 0.0
0 0 0.0
0 0 0.0
0 0 0.0
0 0 0.0
0 0 0.0
0 0 0.0
0 0 0.0
0 0 0.0
0 0 0.0
0 0 0.0
0 0 0.0
0 0 0.0
0 0 0.0
0 0 0.0
0 0 0.0
0 0 0.0
0 0 0.0
0 0 0.0
0 0 0.0
0 0 0.0
0 0 0.0
0 0 0.0
0 0 0.0
0 0 0.0
0 0 0.0
0 0 0.0
0 0 0.0
0 0 0.0
0 0 0.0
0 0 0.0
0 0 0.0
0 0 0.0
0 0 0.0
0 0 0.0
0 0 0.0
0 0 0.0
0 0 0.0
0 0 0.0
0 0 0.0
0 0 0.0
0 0 0.0
0 0 0.0
0 0 0.0
0 0 0.0
0 0 0.0
0 0 0.0
0 0 0.0
0 0 0.0
0 0 0.0
0 0 0.0
0 0 0.0
0 0 0.0
0 0 0.0
0 0 0.0
0 0 0.0
0 0 0.0
0 0 0.0
0 0 0.0
0 0 0.0
0 0 0.0
0 0 0.0
0 0 0.0
0 0 0.0
0 0 0.0
0 0 0.0
0 0 0.0
0 0 0.0
0 0 0.0
0 0 0.0
0 0 0.0
0 0 0.0
0 0 0.0
0 0 0.0
0 0 0.0
0 0 0.0
0 0 0.0
0 0 0.0
0 0 0.0
0 0 0.0
0 0 0.0
0 0 0.0
0 0 0.0
0 0 0.0
0 0 0.0
0 0 0.0
0 0 0.0
0 0 0.0
0 0 0.0
0 0 0.0
0 0 0.0
0 0 0.0
0 0 0.0
0 0 0.0
-9.29029e-05 9.29513e-05 0.0
-0.000419439 0.000228075 0.0
-0.000955756 0.000341855 0.0
-0.00165702 0.000424092 0.0
-0.00247725 0.000478 0.0
-0.0033759 0.000509101 0.0
-0.00431928 0.000522467 0.0
-0.00528023 0.000522245 0.0
-0.0062373 0.000511737 0.0
-0.00717383 0.000493563 0.0
-0.00807714 0.000469821 0.0
-0.00893791 0.000442193 0.0
-0.00974955 0.000412041 0.0
-0.0105077 0.000380464 0.0
-0.01121 0.000348351 0.0
-0.0118553 0.000316416 0.0
-0.0124442 0.000285228 0.0
-0.0129777 0.000255237 0.0
-0.0134582 0.000226787 0.0
-0.0138882 0.000200138 0.0
-0.014271 0.000175473 0.0
-0.01461 0.000152913 0.0
-0.014909 0.000132527 0.0
-0.0151718 0.000114334 0.0
-0.0154023 9.83191e-05 0.0
-0.0156044 8.4432e-05 0.0
-0.0157818 7.2597e-05 0.0
-0.0159381 6.27171e-05 0.0
-0.0160769 5.46782e-05 0.0
-0.0162013 4.83535e-05 0.0
-0.0163144 4.36069e-05 0.0
-0.0164189 4.02966e-05 0.0
-0.0165174 3.82775e-05 0.0
-0.0166122 3.74037e-05 0.0
-0.0167051 3.7531e-05 0.0
-0.0167981 3.8518e-05 0.0
-0.0168925 4.02279e-05 0.0
-0.0169896 4.25298e-05 0.0
-0.0170904 4.52989e-05 0.0
-0.0171957 4.8418e-05 0.0
-0.017306 5.17773e-05 0.0
-0.0174218 5.52746e-05 0.0
-0.0175432 5.88158e-05 0.0
-0.0176703 6.23145e-05 0.0
-0.0178029 6.56919e-05 0.0
-0.0179407 6.88765e-05 0.0
-0.0180834 7.1804e-05 0.0
-0.0182304 7.44167e-05 0.0
-0.0183811 7.6663e-05 0.0
-0.0185348 7.84974e-05 0.0
-0.0186906 7.98798e-05 0.0
-0.0188478 8.07753e-05 0.0
-0.0190054 8.11537e-05 0.0
-0.0191623 8.09891e-05 0.0
-0.0193176 8.02598e-05 0.0
-0.0194703 7.8948e-05 0.0
-0.0196191 7.70395e-05 0.0
-0.019763 7.45234e-05 0.0
-0.0199008 7.13921e-05 0.0
-0.0200314 6.76413e-05 0.0
-0.0201536 6.32696e-05 0.0
-0.0202663 5.82784e-05 0.0
-0.0203683 5.26723e-05 0.0
-0.0204585 4.64587e-05 0.0
-0.0205357 3.96479e-05 0.0
-0.0205989 3.22531e-05 0.0
-0.020647 2.42903e-05 0.0
-0.0206789 1.57786e-05 0.0
-0.0206937 6.74008e-06 0.0
-0.0206904 -2.8003e-06 0.0
-0.0206681 -1.28146e-05 0.0
-0.0206259 -2.32717e-05 0.0
-0.0205632 -3.41378e-05 0.0
-0.0204792 -4.53759e-05 0.0
-0.0203732 -5.69463e-05 0.0
-0.0202447 -6.88063e-05 0.0
-0.0200932 -8.09107e-05 0.0
-0.0199184 -9.32114e-05 0.0
-0.0197199 -0.000105658 0.0
-0.0194976 -0.000118198 0.0
-0.0192513 -0.000130778 0.0
-0.0189811 -0.000143339 0.0
-0.0186871 -0.000155825 0.0
-0.0183694 -0.000168177 0.0
-0.0180286 -0.000180334 0.0
-0.0176649 -0.000192237 0.0
-0.0172791 -0.000203823 0.0
-0.0168717 -0.000215034 0.0
-0.0164435 -0.000225809 0.0
-0.0159955 -0.000236089 0.0
-0.0155286 -0.000245818 0.0
-0.015044 -0.000254941 0.0
-0.0145429 -0.000263403 0.0
-0.0140265 -0.000271155 0.0
-0.0134964 -0.000278151 0.0
-0.0129539 -0.000284345 0.0
-0.0124007 -0.000289698 0.0
-0.0118384 -0.000294173 0.0
-0.0112686 -0.000297739 0.0
-0.0106932 -0.000300368 0.0
-0.0101138 -0.000302037 0.0
-0.00953248 -0.000302725 0.0
-0.00895097 -0.000302419 0.0
-0.0083712 -0.000301107 0.0
-0.00779509 -0.000298781 0.0
-0.00722457 -0.000295438 0.0
-0.00666156 -0.000291076 0.0
-0.00610802 -0.000285696 0.0
-0.00556587 -0.000279298 0.0
-0.00503705 -0.000271883 0.0
-0.0045235 -0.000263453 0.0
-0.00402713 -0.000254004 0.0
-0.0035499 -0.00024353 0.0
-0.00309375 -0.000232017 0.0
-0.00266064 -0.000219446 0.0
-0.0022526 -0.000205787 0.0
-0.00187165 -0.000190998 0.0
-0.00151991 -0.000175028 0.0
-0.00119954 -0.000157812 0.0
-0.000912785 -0.000139281 0.0
-0.000661909 -0.000119374 0.0
-0.000449159 -9.80706e-05 0.0
-0.0002766 -7.54648e-05 0.0
-0.000145807 -5.19319e-05 0.0
-5.72407e-05 -2.85016e-05 0.0
-9.05681e-06 -7.65701e-06 0.0
5.10648e-06 5.1653e-06 0.0
0 0 0.0
0 0 0.0
-0.000228912 0.000419439 0.0
-0.000866262 0.000862853 0.0
-0.00185384 0.00123758 0.0
-0.00312277 0.00152149 0.0
-0.00460302 0.00171888 0.0
-0.00623007 0.00184203 0.0
-0.00794773 0.00190434 0.0
-0.00970883 0.00191803 0.0
-0.0114748 0.00189359 0.0
-0.0132147 0.00183984 0.0
-0.0149045 0.00176409 0.0
-0.0165258 0.0016724 0.0
-0.0180651 0.0015698 0.0
-0.0195132 0.00146041 0.0
-0.0208641 0.00134762 0.0
-0.0221151 0.00123421 0.0
-0.0232657 0.00112241 0.0
-0.0243171 0.00101403 0.0
-0.0252725 0.000910456 0.0
-0.0261361 0.000812776 0.0
-0.0269132 0.000721778 0.0
-0.0276095 0.00063801 0.0
-0.0282315 0.00056181 0.0
-0.0287859 0.000493337 0.0
-0.0292794 0.000432601 0.0
-0.0297191 0.000379481 0.0
-0.0301115 0.000333754 0.0
-0.0304632 0.000295109 0.0
-0.0307804 0.000263166 0.0
-0.0310691 0.000237492 0.0
-0.0313347 0.000217615 0.0
-0.0315823 0.000203035 0.0
-0.0318167 0.000193238 0.0
-0.0320419 0.000187702 0.0
-0.0322616 0.000185905 0.0
-0.0324792 0.000187336 0.0
-0.0326974 0.000191494 0.0
-0.0329184 0.000197901 0.0
-0.0331444 0.000206097 0.0
-0.0333766 0.000215649 0.0
-0.0336163 0.000226147 0.0
-0.0338641 0.000237213 0.0
-0.0341205 0.000248493 0.0
-0.0343856 0.000259662 0.0
-0.0346591 0.000270424 0.0
-0.0349405 0.000280508 0.0
-0.0352293 0.00028967 0.0
-0.0355243 0.00029769 0.0
-0.0358244 0.000304371 0.0
-0.0361285 0.000309538 0.0
-0.0364349 0.000313039 0.0
-0.0367421 0.000314738 0.0
-0.0370484 0.00031452 0.0
-0.0373519 0.000312284 0.0
-0.0376507 0.000307947 0.0
-0.0379429 0.000301441 0.0
-0.0382263 0.00029271 0.0
-0.0384989 0.000281714 0.0
-0.0387586 0.000268424 0.0
-0.0390032 0.000252823 0.0
-0.0392306 0.000234907 0.0
-0.0394386 0.000214684 0.0
-0.039625 0.000192171 0.0
-0.0397878 0.000167399 0.0
-0.0399249 0.000140409 0.0
-0.0400343 0.000111252 0.0
-0.0401139 7.99924e-05 0.0
-0.0401619 4.67047e-05 0.0
-0.0401764 1.14746e-05 0.0
-0.0401557 -2.56007e-05 0.0
-0.0400982 -6.44128e-05 0.0
-0.0400023 -0.000104842 0.0
-0.0398667 -0.000146758 0.0
-0.0396899 -0.00019002 0.0
-0.039471 -0.000234474 0.0
-0.0392089 -0.000279959 0.0
-0.0389028 -0.000326302 0.0
-0.038552 -0.000373322 0.0
-0.038156 -0.000420828 0.0
-0.0377146 -0.000468621 0.0
-0.0372275 -0.000516496 0.0
-0.036695 -0.00056424 0.0
-0.0361173 -0.000611637 0.0
-0.0354949 -0.000658465 0.0
-0.0348285 -0.0007045 0.0
-0.034119 -0.000749517 0.0
-0.0333675 -0.000793287 0.0
-0.0325753 -0.000835589 0.0
-0.0317441 -0.000876198 0.0
-0.0308755 -0.000914897 0.0
-0.0299715 -0.000951474 0.0
-0.0290342 -0.000985723 0.0
-0.0280659 -0.00101745 0.0
-0.0270692 -0.00104646 0.0
-0.0260468 -0.0010726 0.0
-0.0250013 -0.00109568 0.0
-0.0239359 -0.00111556 0.0
-0.0228536 -0.00113212 0.0
-0.0217577 -0.00114522 0.0
-0.0206513 -0.00115477 0.0
-0.0195381 -0.00116068 0.0
-0.0184215 -0.00116287 0.0
-0.0173049 -0.00116128 0.0
-0.0161921 -0.00115588 0.0
-0.0150866 -0.00114664 0.0
-0.0139921 -0.00113353 0.0
-0.0129123 -0.00111655 0.0
-0.0118509 -0.00109569 0.0
-0.0108114 -0.00107097 0.0
-0.0097977 -0.00104237 0.0
-0.00881333 -0.00100992 0.0
-0.00786198 -0.000973597 0.0
-0.00694732 -0.000933386 0.0
-0.00607301 -0.000889256 0.0
-0.00524275 -0.000841152 0.0
-0.00446026 -0.000788997 0.0
-0.00372932 -0.000732689 0.0
-0.00305374 -0.000672106 0.0
-0.00243738 -0.000607122 0.0
-0.0018841 -0.000537633 0.0
-0.00139771 -0.000463627 0.0
-0.000981771 -0.00038531 0.0
-0.00063935 -0.000303352 0.0
-0.000372474 -0.000219359 0.0
-0.000181272 -0.00013675 0.0
-6.25867e-05 -6.23472e-05 0.0
-7.85623e-06 -9.05681e-06 0.0
0 0 0.0
0 0 0.0
-0.000346367 0.000959213 0.0
-0.00125426 0.00185301 0.0
-0.00262438 0.00259836 0.0
-0.0043652 0.00317327 0.0
-0.00638991 0.0035853 0.0
-0.00861851 0.00385381 0.0
-0.0109799 0.00400123 0.0
-0.0134128 0.00404932 0.0
-0.0158658 0.00401765 0.0
-0.0182965 0.0039233 0.0
-0.0206712 0.00378088 0.0
-0.0229633 0.00360276 0.0
-0.025153 0.00339939 0.0
-0.027226 0.00317949 0.0
-0.0291727 0.00295034 0.0
-0.0309877 0.00271794 0.0
-0.0326689 0.00248721 0.0
-0.034217 0.00226211 0.0
-0.0356352 0.00204582 0.0
-0.0369281 0.00184076 0.0
-0.0381023 0.0016488 0.0
-0.0391651 0.00147123 0.0
-0.0401246 0.00130891 0.0
-0.0409896 0.0011623 0.0
-0.041769 0.00103153 0.0
-0.042472 0.000916458 0.0
-0.0431075 0.000816686 0.0
-0.0436843 0.000731637 0.0
-0.0442108 0.000660574 0.0
-0.044695 0.00060264 0.0
-0.0451446 0.000556885 0.0
-0.0455663 0.000522294 0.0
-0.0459667 0.000497811 0.0
-0.0463515 0.00048236 0.0
-0.0467259 0.000474861 0.0
-0.0470942 0.000474247 0.0
-0.0474605 0.000479474 0.0
-0.0478279 0.000489534 0.0
-0.0481993 0.000503459 0.0
-0.0485766 0.000520334 0.0
-0.0489615 0.000539293 0.0
-0.049355 0.000559527 0.0
-0.0497577 0.000580285 0.0
-0.0501699 0.000600872 0.0
-0.0505912 0.000620652 0.0
-0.0510209 0.000639045 0.0
-0.0514583 0.000655523 0.0
-0.0519018 0.000669612 0.0
-0.0523501 0.000680887 0.0
-0.0528013 0.00068897 0.0
-0.0532533 0.000693527 0.0
-0.0537039 0.000694267 0.0
-0.0541508 0.000690936 0.0
-0.0545913 0.000683319 0.0
-0.0550229 0.000671233 0.0
-0.0554427 0.000654529 0.0
-0.0558479 0.00063309 0.0
-0.0562356 0.000606826 0.0
-0.0566028 0.000575677 0.0
-0.0569465 0.000539608 0.0
-0.0572636 0.000498612 0.0
-0.0575513 0.000452706 0.0
-0.0578066 0.000401933 0.0
-0.0580264 0.000346362 0.0
-0.0582079 0.000286083 0.0
-0.0583483 0.000221214 0.0
-0.0584449 0.000151895 0.0
-0.058495 7.82911e-05 0.0
-0.0584961 5.91917e-07 0.0
-0.0584458 -8.09892e-05 0.0
-0.0583419 -0.000166215 0.0
-0.0581823 -0.000254823 0.0
-0.0579651 -0.00034653 0.0
-0.0576885 -0.000441026 0.0
-0.0573511 -0.000537983 0.0
-0.0569515 -0.000637047 0.0
-0.0564886 -0.000737847 0.0
-0.0559616 -0.000839989 0.0
-0.0553699 -0.000943064 0.0
-0.0547133 -0.00104664 0.0
-0.0539915 -0.00115029 0.0
-0.0532048 -0.00125354 0.0
-0.0523538 -0.00135594 0.0
-0.0514392 -0.00145701 0.0
-0.0504621 -0.00155628 0.0
-0.0494238 -0.00165325 0.0
-0.048326 -0.00174746 0.0
-0.0471708 -0.00183842 0.0
-0.0459602 -0.00192565 0.0
-0.044697 -0.00200871 0.0
-0.0433838 -0.00208713 0.0
-0.0420237 -0.00216048 0.0
-0.0406202 -0.00222834 0.0
-0.0391767 -0.00229033 0.0
-0.0376971 -0.00234606 0.0
-0.0361855 -0.0023952 0.0
-0.034646 -0.00243742 0.0
-0.0330831 -0.00247244 0.0
-0.0315014 -0.00250001 0.0
-0.0299056 -0.0025199 0.0
-0.0283005 -0.00253193 0.0
-0.0266911 -0.00253594 0.0
-0.0250825 -0.0025318 0.0
-0.0234798 -0.00251943 0.0
-0.0218881 -0.00249875 0.0
-0.0203126 -0.00246972 0.0
-0.0187586 -0.00243233 0.0
-0.0172313 -0.00238657 0.0
-0.0157358 -0.00233245 0.0
-0.0142775 -0.00226998 0.0
-0.0128615 -0.00219917 0.0
-0.011493 -0.00212002 0.0
-0.0101772 -0.0020325 0.0
-0.00891919 -0.00193659 0.0
-0.00772422 -0.00183219 0.0
-0.00659744 -0.00171921 0.0
-0.00554403 -0.00159752 0.0
-0.00456916 -0.00146697 0.0
-0.00367797 -0.00132745 0.0
-0.0028755 -0.00117895 0.0
-0.00216655 -0.0010217 0.0
-0.00155549 -0.000856428 0.0
-0.00104591 -0.000684762 0.0
-0.000640058 -0.00051001 0.0
-0.000338068 -0.000338388 0.0
-0.000136858 -0.000181073 0.0
-2.87723e-05 -5.74214e-05 0.0
0 0 0.0
0 0 0.0
-0.000436294 0.0016737 0.0
-0.0015653 0.00314086 0.0
-0.00325314 0.00434852 0.0
-0.00538672 0.00528702 0.0
-0.00786463 0.00597219 0.0
-0.0105952 0.00643204 0.0
-0.0134965 0.00669866 0.0
-0.0164972 0.00680389 0.0
-0.0195362 0.00677727 0.0
-0.0225623 0.00664521 0.0
-0.0255339 0.00643088 0.0
-0.0284175 0.00615427 0.0
-0.0311875 0.00583249 0.0
-0.0338249 0.0054801 0.0
-0.0363162 0.00510932 0.0
-0.0386534 0.00473039 0.0
-0.0408323 0.00435174 0.0
-0.0428525 0.00398029 0.0
-0.0447164 0.00362157 0.0
-0.0464289 0.00327994 0.0
-0.0479966 0.00295871 0.0
-0.0494279 0.0026603 0.0
-0.0507319 0.00238633 0.0
-0.0519188 0.00213778 0.0
-0.0529989 0.00191501 0.0
-0.053983 0.00171793 0.0
-0.0548816 0.00154601 0.0
-0.0557054 0.00139839 0.0
-0.0564643 0.00127393 0.0
-0.0571681 0.00117128 0.0
-0.0578259 0.00108893 0.0
-0.058446 0.00102522 0.0
-0.0590364 0.000978439 0.0
-0.059604 0.000946819 0.0
-0.0601552 0.000928583 0.0
-0.0606954 0.000921962 0.0
-0.0612294 0.000925225 0.0
-0.0617614 0.000936691 0.0
-0.0622947 0.000954745 0.0
-0.0628318 0.000977849 0.0
-0.0633748 0.00100455 0.0
-0.063925 0.00103349 0.0
-0.0644832 0.00106339 0.0
-0.0650496 0.00109308 0.0
-0.065624 0.00112148 0.0
-0.0662056 0.00114761 0.0
-0.0667932 0.00117056 0.0
-0.0673852 0.00118953 0.0
-0.0679798 0.0012038 0.0
-0.0685747 0.00121271 0.0
-0.0691674 0.00121569 0.0
-0.0697552 0.00121225 0.0
-0.0703351 0.00120194 0.0
-0.0709039 0.00118441 0.0
-0.0714583 0.00115933 0.0
-0.071995 0.00112645 0.0
-0.0725103 0.00108558 0.0
-0.0730006 0.00103655 0.0
-0.0734623 0.000979277 0.0
-0.0738917 0.000913692 0.0
-0.074285 0.00083979 0.0
-0.0746385 0.000757606 0.0
-0.0749486 0.000667217 0.0
-0.0752116 0.000568745 0.0
-0.0754239 0.000462353 0.0
-0.0755822 0.000348245 0.0
-0.075683 0.00022667 0.0
-0.0757231 9.7915e-05 0.0
-0.0756994 -3.76887e-05 0.0
-0.0756091 -0.00017977 0.0
-0.0754494 -0.000327918 0.0
-0.0752178 -0.000481679 0.0
-0.074912 -0.000640563 0.0
-0.0745299 -0.000804037 0.0
-0.0740698 -0.000971536 0.0
-0.07353 -0.00114245 0.0
-0.0729095 -0.00131615 0.0
-0.0722072 -0.00149196 0.0
-0.0714224 -0.00166918 0.0
-0.070555 -0.00184709 0.0
-0.069605 -0.00202492 0.0
-0.0685726 -0.00220192 0.0
-0.0674587 -0.00237728 0.0
-0.0662645 -0.00255021 0.0
-0.0649912 -0.0027199 0.0
-0.0636408 -0.00288554 0.0
-0.0622154 -0.0030463 0.0
-0.0607177 -0.00320139 0.0
-0.0591505 -0.00335 0.0
-0.0575171 -0.00349136 0.0
-0.0558211 -0.00362471 0.0
-0.0540665 -0.00374931 0.0
-0.0522575 -0.00386446 0.0
-0.0503986 -0.00396951 0.0
-0.0484949 -0.00406381 0.0
-0.0465512 -0.0041468 0.0
-0.0445731 -0.00421793 0.0
-0.0425662 -0.00427674 0.0
-0.0405361 -0.00432278 0.0
-0.038489 -0.00435568 0.0
-0.036431 -0.00437512 0.0
-0.0343682 -0.00438085 0.0
-0.0323072 -0.00437263 0.0
-0.0302543 -0.00435033 0.0
-0.0282161 -0.00431381 0.0
-0.0261992 -0.00426301 0.0
-0.0242101 -0.0041979 0.0
-0.0222555 -0.00411846 0.0
-0.0203419 -0.00402472 0.0
-0.0184759 -0.0039167 0.0
-0.016664 -0.00379443 0.0
-0.0149129 -0.00365793 0.0
-0.0132289 -0.0035072 0.0
-0.0116185 -0.00334221 0.0
-0.0100882 -0.0031629 0.0
-0.00864426 -0.00296918 0.0
-0.00729308 -0.00276097 0.0
-0.00604088 -0.00253816 0.0
-0.00489377 -0.00230078 0.0
-0.00385763 -0.00204906 0.0
-0.00293799 -0.00178364 0.0
-0.00213979 -0.00150595 0.0
-0.00146706 -0.00121878 0.0
-0.000922472 -0.000927199 0.0
-0.000506784 -0.000639949 0.0
-0.00021823 -0.000371643 0.0
-5.19779e-05 -0.000145915 0.0
0 0 0.0
0 0 0.0
-0.000502355 0.00252451 0.0
-0.0018053 0.00466985 0.0
-0.00375092 0.00641978 0.0
-0.00620814 0.00778476 0.0
-0.0090627 0.00879374 0.0
-0.0122131 0.00948568 0.0
-0.015569 0.00990329 0.0
-0.0190514 0.010089 0.0
-0.0225917 0.0100828 0.0
-0.026132 0.009921 0.0
-0.0296242 0.00963606 0.0
-0.0330293 0.0092564 0.0
-0.0363164 0.00880671 0.0
-0.0394621 0.00830819 0.0
-0.0424498 0.00777888 0.0
-0.0452683 0.00723402 0.0
-0.0479114 0.0066863 0.0
-0.0503771 0.0061462 0.0
-0.0526668 0.00562219 0.0
-0.0547848 0.005121 0.0
-0.0567378 0.00464783 0.0
-0.0585342 0.00420654 0.0
-0.0601838 0.00379979 0.0
-0.0616975 0.00342926 0.0
-0.0630866 0.00309571 0.0
-0.0643629 0.00279918 0.0
-0.0655382 0.00253909 0.0
-0.0666242 0.00231432 0.0
-0.0676322 0.00212332 0.0
-0.0685732 0.0019642 0.0
-0.0694573 0.00183482 0.0
-0.0702943 0.00173284 0.0
-0.0710929 0.00165578 0.0
-0.0718612 0.0016011 0.0
-0.0726065 0.00156621 0.0
-0.073335 0.00154853 0.0
-0.0740523 0.00154553 0.0
-0.0747631 0.00155475 0.0
-0.0754711 0.00157381 0.0
-0.0761796 0.00160044 0.0
-0.0768907 0.00163249 0.0
-0.0776061 0.00166795 0.0
-0.0783267 0.00170493 0.0
-0.0790528 0.00174168 0.0
-0.0797841 0.0017766 0.0
-0.0805196 0.0018082 0.0
-0.0812581 0.00183515 0.0
-0.0819978 0.00185624 0.0
-0.0827365 0.00187038 0.0
-0.0834715 0.00187659 0.0
-0.0842 0.00187402 0.0
-0.0849189 0.00186191 0.0
-0.0856245 0.00183962 0.0
-0.0863134 0.00180658 0.0
-0.0869816 0.00176233 0.0
-0.0876251 0.00170648 0.0
-0.0882399 0.00163874 0.0
-0.0888218 0.00155888 0.0
-0.0893663 0.00146675 0.0
-0.0898694 0.00136227 0.0
-0.0903266 0.00124543 0.0
-0.0907336 0.0011163 0.0
-0.0910862 0.000974992 0.0
-0.0913802 0.000821703 0.0
-0.0916115 0.000656686 0.0
-0.0917761 0.000480258 0.0
-0.0918702 0.0002928 0.0
-0.09189 9.4757e-05 0.0
-0.091832 -0.000113367 0.0
-0.0916929 -0.000331004 0.0
-0.0914697 -0.000557526 0.0
-0.0911595 -0.000792246 0.0
-0.0907596 -0.00103442 0.0
-0.0902679 -0.00128324 0.0
-0.0896823 -0.00153784 0.0
-0.0890012 -0.00179733 0.0
-0.0882232 -0.00206073 0.0
-0.0873473 -0.00232704 0.0
-0.0863731 -0.0025952 0.0
-0.0853002 -0.00286413 0.0
-0.0841289 -0.0031327 0.0
-0.0828597 -0.00339975 0.0
-0.0814937 -0.00366411 0.0
-0.0800322 -0.00392458 0.0
-0.0784772 -0.00417994 0.0
-0.0768309 -0.004429 0.0
-0.075096 -0.00467053 0.0
-0.0732757 -0.00490335 0.0
-0.0713734 -0.00512625 0.0
-0.0693932 -0.0053381 0.0
-0.0673393 -0.00553775 0.0
-0.0652166 -0.00572413 0.0
-0.0630301 -0.00589619 0.0
-0.0607853 -0.00605295 0.0
-0.058488 -0.00619348 0.0
-0.0561442 -0.00631691 0.0
-0.0537604 -0.00642247 0.0
-0.0513433 -0.00650942 0.0
-0.0488996 -0.00657714 0.0
-0.0464365 -0.00662507 0.0
-0.0439614 -0.00665272 0.0
-0.0414815 -0.00665971 0.0
-0.0390045 -0.00664571 0.0
-0.036538 -0.00661049 0.0
-0.0340899 -0.00655387 0.0
-0.0316677 -0.00647574 0.0
-0.0292794 -0.00637607 0.0
-0.0269328 -0.00625483 0.0
-0.0246356 -0.00611206 0.0
-0.0223956 -0.00594782 0.0
-0.0202206 -0.00576217 0.0
-0.0181182 -0.00555517 0.0
-0.0160961 -0.00532686 0.0
-0.0141617 -0.00507729 0.0
-0.0123226 -0.00480644 0.0
-0.0105862 -0.00451431 0.0
-0.00895962 -0.0042009 0.0
-0.00745005 -0.00386629 0.0
-0.00606433 -0.0035107 0.0
-0.00480904 -0.00313473 0.0
-0.00369028 -0.00273954 0.0
-0.00271352 -0.00232736 0.0
-0.00188335 -0.00190208 0.0
-0.00120319 -0.00147029 0.0
-0.00067503 -0.00104263 0.0
-0.00029925 -0.000635879 0.0
-7.47931e-05 -0.000275651 0.0
0 0 0.0
0 0 0.0
-0.000549956 0.003479 0.0
-0.00198637 0.00638943 0.0
-0.00413689 0.00875136 0.0
-0.00685719 0.0105988 0.0
-0.0100225 0.0119771 0.0
-0.013523 0.0129383 0.0
-0.0172614 0.013537 0.0
-0.0211526 0.0138266 0.0
-0.0251222 0.013858 0.0
-0.0291069 0.0136778 0.0
-0.0330534 0.0133281 0.0
-0.0369178 0.0128464 0.0
-0.0406651 0.0122654 0.0
-0.0442682 0.0116136 0.0
-0.047707 0.0109155 0.0
-0.0509676 0.010192 0.0
-0.0540416 0.00946049 0.0
-0.0569253 0.00873562 0.0
-0.0596189 0.00802926 0.0
-0.0621257 0.00735094 0.0
-0.0644521 0.00670811 0.0
-0.0666062 0.00610636 0.0
-0.068598 0.00554966 0.0
-0.0704385 0.00504056 0.0
-0.0721397 0.00458042 0.0
-0.073714 0.00416952 0.0
-0.0751738 0.00380729 0.0
-0.0765318 0.0034924 0.0
-0.0778 0.0032229 0.0
-0.0789903 0.00299639 0.0
-0.0801137 0.00281005 0.0
-0.0811808 0.00266082 0.0
-0.0822011 0.0025454 0.0
-0.0831834 0.0024604 0.0
-0.0841356 0.00240235 0.0
-0.0850647 0.00236778 0.0
-0.0859768 0.00235329 0.0
-0.0868771 0.00235552 0.0
-0.0877697 0.00237127 0.0
-0.088658 0.00239743 0.0
-0.0895447 0.0024311 0.0
-0.0904314 0.0024695 0.0
-0.0913193 0.00251006 0.0
-0.0922085 0.00255039 0.0
-0.0930989 0.00258827 0.0
-0.0939893 0.00262168 0.0
-0.0948785 0.00264878 0.0
-0.0957642 0.00266789 0.0
-0.0966442 0.0026775 0.0
-0.0975155 0.00267628 0.0
-0.0983748 0.00266304 0.0
-0.0992187 0.00263673 0.0
-0.100043 0.00259647 0.0
-0.100844 0.00254146 0.0
-0.101618 0.00247108 0.0
-0.102359 0.00238479 0.0
-0.103064 0.00228219 0.0
-0.103727 0.00216295 0.0
-0.104344 0.0020269 0.0
-0.10491 0.00187391 0.0
-0.10542 0.001704 0.0
-0.10587 0.00151725 0.0
-0.106254 0.00131384 0.0
-0.106569 0.00109406 0.0
-0.106809 0.000858258 0.0
-0.10697 0.000606896 0.0
-0.107048 0.000340514 0.0
-0.107039 5.97385e-05 0.0