# vtk DataFile Version 3.0
Lid-Driven Cavity Flow
ASCII
DATASET STRUCTURED_GRID
DIMENSIONS 129 129 1
POINTS 16641 double
0 0 0.0
0.0078125 0 0.0
0.015625 0 0.0
0.0234375 0 0.0
0.03125 0 0.0
0.0390625 0 0.0
0.046875 0 0.0
0.0546875 0 0.0
0.0625 0 0.0
0.0703125 0 0.0
0.078125 0 0.0
0.0859375 0 0.0
0.09375 0 0.0
0.101562 0 0.0
0.109375 0 0.0
0.117188 0 0.0
0.125 0 0.0
0.132812 0 0.0
0.140625 0 0.0
0.148438 0 0.0
0.15625 0 0.0
0.164062 0 0.0
0.171875 0 0.0
0.179688 0 0.0
0.1875 0 0.0
0.195312 0 0.0
0.203125 0 0.0
0.210938 0 0.0
0.21875 0 0.0
0.226562 0 0.0
0.234375 0 0.0
0.242188 0 0.0
0.25 0 0.0
0.257812 0 0.0
0.265625 0 0.0
0.273438 0 0.0
0.28125 0 0.0
0.289062 0 0.0
0.296875 0 0.0
0.304688 0 0.0
0.3125 0 0.0
0.320312 0 0.0
0.328125 0 0.0
0.335938 0 0.0
0.34375 0 0.0
0.351562 0 0.0
0.359375 0 0.0
0.367188 0 0.0
0.375 0 0.0
0.382812 0 0.0
0.390625 0 0.0
0.398438 0 0.0
0.40625 0 0.0
0.414062 0 0.0
0.421875 0 0.0
0.429688 0 0.0
0.4375 0 0.0
0.445312 0 0.0
0.453125 0 0.0
0.460938 0 0.0
0.46875 0 0.0
0.476562 0 0.0
0.484375 0 0.0
0.492188 0 0.0
0.5 0 0.0
0.507812 0 0.0
0.515625 0 0.0
0.523438 0 0.0
0.53125 0 0.0
0.539062 0 0.0
0.546875 0 0.0
0.554688 0 0.0
0.5625 0 0.0
0.570312 0 0.0
0.578125 0 0.0
0.585938 0 0.0
0.59375 0 0.0
0.601562 0 0.0
0.609375 0 0.0
0.617188 0 0.0
0.625 0 0.0
0.632812 0 0.0
0.640625 0 0.0
0.648438 0 0.0
0.65625 0 0.0
0.664062 0 0.0
0.671875 0 0.0
0.679688 0 0.0
0.6875 0 0.0
0.695312 0 0.0
0.703125 0 0.0
0.710938 0 0.0
0.71875 0 0.0
0.726562 0 0.0
0.734375 0 0.0
0.742188 0 0.0
0.75 0 0.0
0.757812 0 0.0
0.765625 0 0.0
0.773438 0 0.0
0.78125 0 0.0
0.789062 0 0.0
0.796875 0 0.0
0.804688 0 0.0
0.8125 0 0.0
0.820312 0 0.0
0.828125 0 0.0
0.835938 0 0.0
0.84375 0 0.0
0.851562 0 0.0
0.859375 0 0.0
0.867188 0 0.0
0.875 0 0.0
0.882812 0 0.0
0.890625 0 0.0
0.898438 0 0.0
0.90625 0 0.0
0.914062 0 0.0
0.921875 0 0.0
0.929688 0 0.0
0.9375 0 0.0
0.945312 0 0.0
0.953125 0 0.0
0.960938 0 0.0
0.96875 0 0.0
0.976562 0 0.0
0.984375 0 0.0
0.992188 0 0.0
1 0 0.0
0 0.0078125 0.0
0.0078125 0.0078125 0.0
0.015625 0.0078125 0.0
0.0234375 0.0078125 0.0
0.03125 0.0078125 0.0
0.0390625 0.0078125 0.0
0.046875 0.0078125 0.0
0.0546875 0.0078125 0.0
0.0625 0.0078125 0.0
0.0703125 0.0078125 0.0
0.078125 0.0078125 0.0
0.0859375 0.0078125 0.0
0.09375 0.0078125 0.0
0.101562 0.0078125 0.0
0.109375 0.0078125 0.0
0.117188 0.0078125 0.0
0.125 0.0078125 0.0
0.132812 0.0078125 0.0
0.140625 0.0078125 0.0
0.148438 0.0078125 0.0
0.15625 0.0078125 0.0
0.164062 0.0078125 0.0
0.171875 0.0078125 0.0
0.179688 0.0078125 0.0
0.1875 0.0078125 0.0
0.195312 0.0078125 0.0
0.203125 0.0078125 0.0
0.210938 0.0078125 0.0
0.21875 0.0078125 0.0
0.226562 0.0078125 0.0
0.234375 0.0078125 0.0
0.242188 0.0078125 0.0
0.25 0.0078125 0.0
0.257812 0.0078125 0.0
0.265625 0.0078125 0.0
0.273438 0.0078125 0.0
0.28125 0.0078125 0.0
0.289062 0.0078125 0.0
0.296875 0.0078125 0.0
0.304688 0.0078125 0.0
0.3125 0.0078125 0.0
0.320312 0.0078125 0.0
0.328125 0.0078125 0.0
0.335938 0.0078125 0.0
0.34375 0.0078125 0.0
0.351562 0.0078125 0.0
0.359375 0.0078125 0.0
0.367188 0.0078125 0.0
0.375 0.0078125 0.0
0.382812 0.0078125 0.0
0.390625 0.0078125 0.0
0.398438 0.0078125 0.0
0.40625 0.0078125 0.0
0.414062 0.0078125 0.0
0.421875 0.0078125 0.0
0.429688 0.0078125 0.0
0.4375 0.0078125 0.0
0.445312 0.0078125 0.0
0.453125 0.0078125 0.0
0.460938 0.0078125 0.0
0.46875 0.0078125 0.0
0.476562 0.0078125 0.0
0.484375 0.0078125 0.0
0.492188 0.0078125 0.0
0.5 0.0078125 0.0
0.507812 0.0078125 0.0
0.515625 0.0078125 0.0
0.523438 0.0078125 0.0
0.53125 0.0078125 0.0
0.539062 0.0078125 0.0
0.546875 0.0078125 0.0
0.554688 0.0078125 0.0
0.5625 0.0078125 0.0
0.570312 0.0078125 0.0
0.578125 0.0078125 0.0
0.585938 0.0078125 0.0
0.59375 0.0078125 0.0
0.601562 0.0078125 0.0
0.609375 0.0078125 0.0
0.617188 0.0078125 0.0
0.625 0.0078125 0.0
0.632812 0.0078125 0.0
0.640625 0.0078125 0.0
0.648438 0.0078125 0.0
0.65625 0.0078125 0.0
0.664062 0.0078125 0.0
0.671875 0.0078125 0.0
0.679688 0.0078125 0.0
0.6875 0.0078125 0.0
0.695312 0.0078125 0.0
0.703125 0.0078125 0.0
0.710938 0.0078125 0.0
0.71875 0.0078125 0.0
0.726562 0.0078125 0.0
0.734375 0.0078125 0.0
0.742188 0.0078125 0.0
0.75 0.0078125 0.0
0.757812 0.0078125 0.0
0.765625 0.0078125 0.0
0.773438 0.0078125 0.0
0.78125 0.0078125 0.0
0.789062 0.0078125 0.0
0.796875 0.0078125 0.0
0.804688 0.0078125 0.0
0.8125 0.0078125 0.0
0.820312 0.0078125 0.0
0.828125 0.0078125 0.0
0.835938 0.0078125 0.0
0.84375 0.0078125 0.0
0.851562 0.0078125 0.0
0.859375 0.0078125 0.0
0.867188 0.0078125 0.0
0.875 0.0078125 0.0
0.882812 0.0078125 0.0
0.890625 0.0078125 0.0
0.898438 0.0078125 0.0
0.90625 0.0078125 0.0
0.914062 0.0078125 0.0
0.921875 0.0078125 0.0
0.929688 0.0078125 0.0
0.9375 0.0078125 0.0
0.945312 0.0078125 0.0
0.953125 0.0078125 0.0
0.960938 0.0078125 0.0
0.96875 0.0078125 0.0
0.976562 0.0078125 0.0
0.984375 0.0078125 0.0
0.992188 0.0078125 0.0
1 0.0078125 0.0
0 0.015625 0.0
0.0078125 0.015625 0.0
0.015625 0.015625 0.0
0.0234375 0.015625 0.0
0.03125 0.015625 0.0
0.0390625 0.015625 0.0
0.046875 0.015625 0.0
0.0546875 0.015625 0.0
0.0625 0.015625 0.0
0.0703125 0.015625 0.0
0.078125 0.015625 0.0
0.0859375 0.015625 0.0
0.09375 0.015625 0.0
0.101562 0.015625 0.0
0.109375 0.015625 0.0
0.117188 0.015625 0.0
0.125 0.015625 0.0
0.132812 0.015625 0.0
0.140625 0.015625 0.0
0.148438 0.015625 0.0
0.15625 0.015625 0.0
0.164062 0.015625 0.0
0.171875 0.015625 0.0
0.179688 0.015625 0.0
0.1875 0.015625 0.0
0.195312 0.015625 0.0
0.203125 0.015625 0.0
0.210938 0.015625 0.0
0.21875 0.015625 0.0
0.226562 0.015625 0.0
0.234375 0.015625 0.0
0.242188 0.015625 0.0
0.25 0.015625 0.0
0.257812 0.015625 0.0
0.265625 0.015625 0.0
0.273438 0.015625 0.0
0.28125 0.015625 0.0
0.289062 0.015625 0.0
0.296875 0.015625 0.0
0.304688 0.015625 0.0
0.3125 0.015625 0.0
0.320312 0.015625 0.0
0.328125 0.015625 0.0
0.335938 0.015625 0.0
0.34375 0.015625 0.0
0.351562 0.015625 0.0
0.359375 0.015625 0.0
0.367188 0.015625 0.0
0.375 0.015625 0.0
0.382812 0.015625 0.0
0.390625 0.015625 0.0
0.398438 0.015625 0.0
0.40625 0.015625 0.0
0.414062 0.015625 0.0
0.421875 0.015625 0.0
0.429688 0.015625 0.0
0.4375 0.015625 0.0
0.445312 0.015625 0.0
0.453125 0.015625 0.0
0.460938 0.015625 0.0
0.46875 0.015625 0.0
0.476562 0.015625 0.0
0.484375 0.015625 0.0
0.492188 0.015625 0.0
0.5 0.015625 0.0
0.507812 0.015625 0.0
0.515625 0.015625 0.0
0.523438 0.015625 0.0
0.53125 0.015625 0.0
0.539062 0.015625 0.0
0.546875 0.015625 0.0
0.554688 0.015625 0.0
0.5625 0.015625 0.0
0.570312 0.015625 0.0
0.578125 0.015625 0.0
0.585938 0.015625 0.0
0.59375 0.015625 0.0
0.601562 0.015625 0.0
0.609375 0.015625 0.0
0.617188 0.015625 0.0
0.625 0.015625 0.0
0.632812 0.015625 0.0
0.640625 0.015625 0.0
0.648438 0.015625 0.0
0.65625 0.015625 0.0
0.664062 0.015625 0.0
0.671875 0.015625 0.0
0.679688 0.015625 0.0
0.6875 0.015625 0.0
0.695312 0.015625 0.0
0.703125 0.015625 0.0
0.710938 0.015625 0.0
0.71875 0.015625 0.0
0.726562 0.015625 0.0
0.734375 0.015625 0.0
0.742188 0.015625 0.0
0.75 0.015625 0.0
0.757812 0.015625 0.0
0.765625 0.015625 0.0
0.773438 0.015625 0.0
0.78125 0.015625 0.0
0.789062 0.015625 0.0
0.796875 0.015625 0.0
0.804688 0.015625 0.0
0.8125 0.015625 0.0
0.820312 0.015625 0.0
0.828125 0.015625 0.0
0.835938 0.015625 0.0
0.84375 0.015625 0.0
0.851562 0.015625 0.0
0.859375 0.015625 0.0
0.867188 0.015625 0.0
0.875 0.015625 0.0
0.882812 0.015625 0.0
0.890625 0.015625 0.0
0.898438 0.015625 0.0
0.90625 0.015625 0.0
0.914062 0.015625 0.0
0.921875 0.015625 0.0
0.929688 0.015625 0.0
0.9375 0.015625 0.0
0.945312 0.015625 0.0
0.953125 0.015625 0.0
0.960938 0.015625 0.0
0.96875 0.015625 0.0
0.976562 0.015625 0.0
0.984375 0.015625 0.0
0.992188 0.015625 0.0
1 0.015625 0.0
0 0.0234375 0.0
0.0078125 0.0234375 0.0
0.015625 0.0234375 0.0
0.0234375 0.0234375 0.0
0.03125 0.0234375 0.0
0.0390625 0.0234375 0.0
0.046875 0.0234375 0.0
0.0546875 0.0234375 0.0
0.0625 0.0234375 0.0
0.0703125 0.0234375 0.0
0.078125 0.0234375 0.0
0.0859375 0.0234375 0.0
0.09375 0.0234375 0.0
0.101562 0.0234375 0.0
0.109375 0.0234375 0.0
0.117188 0.0234375 0.0
0.125 0.0234375 0.0
0.132812 0.0234375 0.0
0.140625 0.0234375 0.0
0.148438 0.0234375 0.0
0.15625 0.0234375 0.0
0.164062 0.0234375 0.0
0.171875 0.0234375 0.0
0.179688 0.0234375 0.0
0.1875 0.0234375 0.0
0.195312 0.0234375 0.0
0.203125 0.0234375 0.0
0.210938 0.0234375 0.0
0.21875 0.0234375 0.0
0.226562 0.0234375 0.0
0.234375 0.0234375 0.0
0.242188 0.0234375 0.0
0.25 0.0234375 0.0
0.257812 0.0234375 0.0
0.265625 0.0234375 0.0
0.273438 0.0234375 0.0
0.28125 0.0234375 0.0
0.289062 0.0234375 0.0
0.296875 0.0234375 0.0
0.304688 0.0234375 0.0
0.3125 0.0234375 0.0
0.320312 0.0234375 0.0
0.328125 0.0234375 0.0
0.335938 0.0234375 0.0
0.34375 0.0234375 0.0
0.351562 0.0234375 0.0
0.359375 0.0234375 0.0
0.367188 0.0234375 0.0
0.375 0.0234375 0.0
0.382812 0.0234375 0.0
0.390625 0.0234375 0.0
0.398438 0.0234375 0.0
0.40625 0.0234375 0.0
0.414062 0.0234375 0.0
0.421875 0.0234375 0.0
0.429688 0.0234375 0.0
0.4375 0.0234375 0.0
0.445312 0.0234375 0.0
0.453125 0.0234375 0.0
0.460938 0.0234375 0.0
0.46875 0.0234375 0.0
0.476562 0.0234375 0.0
0.484375 0.0234375 0.0
0.492188 0.0234375 0.0
0.5 0.0234375 0.0
0.507812 0.0234375 0.0
0.515625 0.0234375 0.0
0.523438 0.0234375 0.0
0.53125 0.0234375 0.0
0.539062 0.0234375 0.0
0.546875 0.0234375 0.0
0.554688 0.0234375 0.0
0.5625 0.0234375 0.0
0.570312 0.0234375 0.0
0.578125 0.0234375 0.0
0.585938 0.0234375 0.0
0.59375 0.0234375 0.0
0.601562 0.0234375 0.0
0.609375 0.0234375 0.0
0.617188 0.0234375 0.0
0.625 0.0234375 0.0
0.632812 0.0234375 0.0
0.640625 0.0234375 0.0
0.648438 0.0234375 0.0
0.65625 0.0234375 0.0
0.664062 0.0234375 0.0
0.671875 0.0234375 0.0
0.679688 0.0234375 0.0
0.6875 0.0234375 0.0
0.695312 0.0234375 0.0
0.703125 0.0234375 0.0
0.710938 0.0234375 0.0
0.71875 0.0234375 0.0
0.726562 0.0234375 0.0
0.734375 0.0234375 0.0
0.742188 0.0234375 0.0
0.75 0.0234375 0.0
0.757812 0.0234375 0.0
0.765625 0.0234375 0.0
0.773438 0.0234375 0.0
0.78125 0.0234375 0.0
0.789062 0.0234375 0.0
0.796875 0.0234375 0.0
[...]
POINT_DATA 16641
VECTORS velocity double
0 0 0.0
0 0 0.0
0 0 0.0
0 0 0.0
0 0 0.0
0 0 0.0
0 0 0.0
0 0 0.0
0 0 0.0
0 0 0.0
0 0 0.0
0 0 0.0
0 0 0.0
0 0 0.0
0 0 0.0
0 0 0.0
0 0 0.0
0 0 0.0
0 0 0.0
0 0 0.0
0 0 0.0
0 0 0.0
0 0 0.0
0 0 0.0
0 0 0.0
0 0 0.0
0 0 0.0
0 0 0.0
0 0 0.0
0 0 0.0
0 0 0.0
0 0 0.0
0 0 0.0
0 0 0.0
0 0 0.0
0 0 0.0
0 0 0.0
0 0 0.0
0 0 0.0
0 0 0.0
0 0 0.0
0 0 0.0
0 0 0.0
0 0 0.0
0 0 0.0
0 0 0.0
0 0 0.0
0 0 0.0
0 0 0.0
0 0 0.0
0 0 0.0
0 0 0.0
0 0 0.0
0 0 0.0
0 0 0.0
0 0 0.0
0 0 0.0
0 0 0.0
0 0 0.0
0 0 0.0
0 0 0.0
0 0 0.0
0 0 0.0
0 0 0.0
0 0 0.0
0 0 0.0
0 0 0.0
0 0 0.0
0 0 0.0
0 0 0.0
0 0 0.0
0 0 0.0
0 0 0.0
0 0 0.0
0 0 0.0
0 0 0.0
0 0 0.0
0 0 0.0
0 0 0.0
0 0 0.0
0 0 0.0
0 0 0.0
0 0 0.0
0 0 0.0
0 0 0.0
0 0 0.0
0 0 0.0
0 0 0.0
0 0 0.0
0 0 0.0
0 0 0.0
0 0 0.0
0 0 0.0
0 0 0.0
0 0 0.0
0 0 0.0
0 0 0.0
0 0 0.0
0 0 0.0
0 0 0.0
0 0 0.0
0 0 0.0
0 0 0.0
0 0 0.0
0 0 0.0
0 0 0.0
0 0 0.0
0 0 0.0
0 0 0.0
0 0 0.0
0 0 0.0
0 0 0.0
0 0 0.0
0 0 0.0
0 0 0.0
0 0 0.0
0 0 0.0
0 0 0.0
0 0 0.0
0 0 0.0
0 0 0.0
0 0 0.0
0 0 0.0
0 0 0.0
0 0 0.0
0 0 0.0
0 0 0.0
0 0 0.0
0 0 0.0
0 0 0.0
9.93453e-06 -9.87734e-06 0.0
4.18391e-05 -2.33282e-05 0.0
8.90597e-05 -3.18545e-05 0.0
0.000143522 -3.50592e-05 0.0
0.000198229 -3.41607e-05 0.0
0.000247807 -3.04054e-05 0.0
0.000288399 -2.47673e-05 0.0
0.000317374 -1.79529e-05 0.0
0.000333038 -1.04587e-05 0.0
0.000334384 -2.62503e-06 0.0
0.000320892 5.32278e-06 0.0
0.000292368 1.32439e-05 0.0
0.000248826 2.10594e-05 0.0
0.000190394 2.87347e-05 0.0
0.000117251 3.62669e-05 0.0
2.95771e-05 4.36738e-05 0.0
-7.24793e-05 5.09862e-05 0.0
-0.000188817 5.82418e-05 0.0
-0.000319394 6.54803e-05 0.0
-0.000464227 7.27401e-05 0.0
-0.000623391 8.00553e-05 0.0
-0.000797007 8.74544e-05 0.0
-0.000985234 9.49589e-05 0.0
-0.00118826 0.000102583 0.0
-0.00140627 0.000110333 0.0
-0.00163946 0.000118206 0.0
-0.00188801 0.000126194 0.0
-0.00215206 0.00013428 0.0
-0.0024317 0.00014244 0.0
-0.00272697 0.000150643 0.0
-0.00303785 0.000158851 0.0
-0.00336423 0.000167024 0.0
-0.0037059 0.00017511 0.0
-0.00406256 0.000183058 0.0
-0.00443379 0.000190808 0.0
-0.00481907 0.000198296 0.0
-0.00521774 0.000205454 0.0
-0.00562898 0.000212212 0.0
-0.00605189 0.000218494 0.0
-0.00648536 0.000224221 0.0
-0.00692818 0.000229313 0.0
-0.00737895 0.000233687 0.0
-0.00783615 0.000237261 0.0
-0.00829809 0.000239948 0.0
-0.00876292 0.000241667 0.0
-0.00922865 0.000242333 0.0
-0.00969315 0.000241868 0.0
-0.0101542 0.000240195 0.0
-0.0106093 0.000237242 0.0
-0.0110559 0.000232942 0.0
-0.0114916 0.000227238 0.0
-0.0119135 0.000220076 0.0
-0.0123189 0.000211417 0.0
-0.012705 0.000201228 0.0
-0.0130689 0.000189492 0.0
-0.0134078 0.000176202 0.0
-0.0137188 0.000161366 0.0
-0.0139991 0.000145008 0.0
-0.0142461 0.000127165 0.0
-0.0144571 0.000107895 0.0
-0.0146296 8.72684e-05 0.0
-0.0147613 6.53766e-05 0.0
-0.0148502 4.23269e-05 0.0
-0.0148943 1.82444e-05 0.0
-0.014892 -6.72863e-06 0.0
-0.014842 -3.24333e-05 0.0
-0.0147432 -5.86953e-05 0.0
-0.0145949 -8.53258e-05 0.0
-0.0143968 -0.000112123 0.0
-0.0141489 -0.000138874 0.0
-0.0138517 -0.000165356 0.0
-0.0135059 -0.000191342 0.0
-0.0131128 -0.000216599 0.0
-0.012674 -0.000240891 0.0
-0.0121917 -0.000263988 0.0
-0.0116683 -0.000285662 0.0
-0.0111066 -0.000305695 0.0
-0.0105099 -0.000323879 0.0
-0.00988181 -0.000340022 0.0
-0.00922614 -0.000353952 0.0
-0.00854711 -0.000365516 0.0
-0.00784914 -0.000374586 0.0
-0.00713685 -0.000381061 0.0
-0.00641502 -0.000384869 0.0
-0.00568851 -0.000385968 0.0
-0.00496224 -0.000384349 0.0
-0.00424111 -0.000380035 0.0
-0.00352998 -0.00037308 0.0
-0.00283355 -0.000363573 0.0
-0.00215638 -0.00035163 0.0
-0.00150277 -0.000337398 0.0
-0.000876766 -0.00032105 0.0
-0.000282089 -0.000302782 0.0
0.000277899 -0.00028281 0.0
0.000800229 -0.000261367 0.0
0.00128235 -0.000238697 0.0
0.00172214 -0.000215053 0.0
0.00211795 -0.000190689 0.0
0.00246855 -0.000165861 0.0
0.0027732 -0.000140819 0.0
0.00303158 -0.000115802 0.0
0.00324379 -9.10398e-05 0.0
0.00341036 -6.67445e-05 0.0
0.00353218 -4.31108e-05 0.0
0.00361049 -2.03139e-05 0.0
0.00364687 1.49175e-06 0.0
0.00364314 2.21722e-05 0.0
0.00360141 4.16135e-05 0.0
0.00352397 5.97192e-05 0.0
0.00341334 7.64077e-05 0.0
0.00327217 9.16078e-05 0.0
0.00310328 0.000105253 0.0
0.00290966 0.000117274 0.0
0.00269444 0.000127591 0.0
0.00246095 0.000136103 0.0
0.00221276 0.000142674 0.0
0.00195371 0.000147122 0.0
0.00168806 0.000149201 0.0
0.00142052 0.000148583 0.0
0.0011564 0.000144843 0.0
0.000901783 0.000137443 0.0
0.000663568 0.000125731 0.0
0.000449571 0.00010898 0.0
0.000268375 8.65539e-05 0.0
0.00012877 5.84048e-05 0.0
3.81931e-05 2.65272e-05 0.0
-1.01789e-06 -1.04707e-06 0.0
0 0 0.0
0 0 0.0
2.35632e-05 -4.18391e-05 0.0
7.9471e-05 -7.91252e-05 0.0
0.000155135 -0.000101683 0.0
0.000238667 -0.000109169 0.0
0.000319706 -0.000104285 0.0
0.000389903 -9.01704e-05 0.0
0.000442936 -6.95666e-05 0.0
0.00047426 -4.46386e-05 0.0
0.000480779 -1.70104e-05 0.0
0.000460518 1.21456e-05 0.0
0.000412329 4.20161e-05 0.0
0.000335645 7.20664e-05 0.0
0.000230284 0.000101974 0.0
9.62967e-05 0.000131574 0.0
-6.61506e-05 0.000160817 0.0
-0.000256861 0.000189731 0.0
-0.000475665 0.000218394 0.0
-0.000722454 0.000246914 0.0
-0.000997202 0.00027541 0.0
-0.00129997 0.000303997 0.0
-0.00163089 0.00033278 0.0
-0.00199019 0.000361844 0.0
-0.00237812 0.00039125 0.0
-0.00279496 0.000421035 0.0
-0.00324102 0.000451206 0.0
-0.00371655 0.000481741 0.0
-0.00422178 0.000512593 0.0
-0.00475686 0.000543685 0.0
-0.00532185 0.000574914 0.0
-0.00591666 0.000606155 0.0
-0.00654109 0.000637256 0.0
-0.00719477 0.000668046 0.0
-0.00787713 0.00069833 0.0
-0.00858742 0.000727897 0.0
-0.00932465 0.000756517 0.0
-0.0100876 0.000783942 0.0
-0.0108749 0.000809911 0.0
-0.0116847 0.000834151 0.0
-0.0125151 0.000856375 0.0
-0.0133638 0.000876289 0.0
-0.0142283 0.000893592 0.0
-0.0151057 0.000907976 0.0
-0.0159931 0.000919136 0.0
-0.0168869 0.000926764 0.0
-0.0177835 0.000930561 0.0
-0.0186791 0.000930234 0.0
-0.0195694 0.000925502 0.0
-0.0204501 0.000916103 0.0
-0.0213166 0.000901791 0.0
-0.0221639 0.000882349 0.0
-0.0229873 0.000857586 0.0
-0.0237816 0.000827346 0.0
-0.0245415 0.000791509 0.0
-0.025262 0.000749996 0.0
-0.0259376 0.000702775 0.0
-0.0265632 0.000649862 0.0
-0.0271336 0.000591325 0.0
-0.0276438 0.000527286 0.0
-0.028089 0.000457927 0.0
-0.0284645 0.000383487 0.0
-0.0287659 0.000304265 0.0
-0.0289894 0.000220623 0.0
-0.0291312 0.000132983 0.0
-0.0291881 4.1825e-05 0.0
-0.0291575 -5.23103e-05 0.0
-0.0290372 -0.000148829 0.0
-0.0288255 -0.000247085 0.0
-0.0285216 -0.000346387 0.0
-0.0281251 -0.000445999 0.0
-0.0276363 -0.000545154 0.0
-0.0270563 -0.000643055 0.0
-0.0263868 -0.000738888 0.0
-0.0256303 -0.000831827 0.0
-0.0247901 -0.000921048 0.0
-0.02387 -0.00100573 0.0
-0.0228748 -0.00108509 0.0
-0.0218097 -0.00115836 0.0
-0.0206807 -0.00122482 0.0
-0.0194943 -0.0012838 0.0
-0.0182576 -0.0013347 0.0
-0.0169783 -0.001377 0.0
-0.0156643 -0.00141026 0.0
-0.0143239 -0.00143412 0.0
-0.0129657 -0.00144835 0.0
-0.0115986 -0.00145278 0.0
-0.0102314 -0.00144739 0.0
-0.0088729 -0.00143225 0.0
-0.00753185 -0.00140756 0.0
-0.00621678 -0.0013736 0.0
-0.00493592 -0.00133079 0.0
-0.00369712 -0.00127961 0.0
-0.00250777 -0.00122068 0.0
-0.0013747 -0.00115466 0.0
-0.000304129 -0.00108232 0.0
0.0006984 -0.00100445 0.0
0.00162806 -0.000921915 0.0
0.0024808 -0.0008356 0.0
0.00325334 -0.000746411 0.0
0.00394322 -0.000655253 0.0
0.00454877 -0.000563022 0.0
0.00506912 -0.000470587 0.0
0.00550416 -0.000378781 0.0
0.00585455 -0.000288389 0.0
0.00612164 -0.000200137 0.0
0.00630741 -0.000114691 0.0
0.00641448 -3.26489e-05 0.0
0.00644601 4.54596e-05 0.0
0.00640564 0.000119169 0.0
0.00629747 0.000188071 0.0
0.006126 0.000251809 0.0
0.0058961 0.000310058 0.0
0.00561296 0.000362508 0.0
0.00528213 0.000408842 0.0
0.00490952 0.000448707 0.0
0.0045014 0.000481681 0.0
0.00406454 0.000507235 0.0
0.00360621 0.000524695 0.0
0.0031344 0.000533199 0.0
0.00265785 0.000531658 0.0
0.00218628 0.000518732 0.0
0.00173051 0.000492835 0.0
0.00130247 0.000452212 0.0
0.000915166 0.000395193 0.0
0.000582246 0.000320801 0.0
0.000316976 0.000230182 0.0
0.000130196 0.000129788 0.0
2.67131e-05 3.81931e-05 0.0
0 0 0.0
0 0 0.0
3.22891e-05 -8.93484e-05 0.0
0.000102225 -0.0001549 0.0
0.000191268 -0.00019105 0.0
0.000284562 -0.00019963 0.0
0.000369815 -0.000185397 0.0
0.000437103 -0.000153636 0.0
0.000478729 -0.000109124 0.0
0.00048898 -5.5796e-05 0.0
0.000463811 3.28253e-06 0.0
0.000400511 6.58249e-05 0.0
0.000297386 0.000130197 0.0
0.000153483 0.000195289 0.0
-3.16464e-05 0.000260407 0.0
-0.00025813 0.000325169 0.0
-0.000525922 0.000389425 0.0
-0.000834911 0.000453188 0.0
-0.00118499 0.000516579 0.0
-0.00157613 0.000579778 0.0
-0.00200834 0.000642994 0.0
-0.00248177 0.000706433 0.0
-0.00299661 0.000770279 0.0
-0.00355314 0.000834679 0.0
-0.00415168 0.000899731 0.0
-0.00479256 0.000965482 0.0
-0.00547609 0.00103192 0.0
-0.00620252 0.00109897 0.0
-0.00697201 0.00116651 0.0
-0.0077846 0.00123434 0.0
-0.00864018 0.00130224 0.0
-0.00953843 0.00136989 0.0
-0.0104788 0.00143696 0.0
-0.0114606 0.00150306 0.0
-0.0124827 0.00156776 0.0
-0.0135437 0.00163058 0.0
-0.014642 0.00169101 0.0
-0.0157755 0.00174851 0.0
-0.016942 0.0018025 0.0
-0.0181385 0.0018524 0.0
-0.0193621 0.00189759 0.0
-0.0206092 0.00193742 0.0
-0.0218759 0.00197127 0.0
-0.0231579 0.00199848 0.0
-0.0244505 0.00201841 0.0
-0.0257486 0.00203042 0.0
-0.0270469 0.0020339 0.0
-0.0283396 0.00202824 0.0
-0.0296206 0.00201289 0.0
-0.0308834 0.00198732 0.0
-0.0321216 0.00195106 0.0
-0.0333281 0.00190369 0.0
-0.034496 0.00184486 0.0
-0.0356181 0.00177429 0.0
-0.0366871 0.0016918 0.0
-0.0376958 0.00159728 0.0
-0.0386369 0.00149072 0.0
-0.0395032 0.00137223 0.0
-0.0402878 0.00124201 0.0
-0.0409839 0.00110039 0.0
-0.0415849 0.000947816 0.0
-0.0420849 0.000784846 0.0
-0.0424781 0.000612168 0.0
-0.0427594 0.000430592 0.0
-0.0429241 0.000241046 0.0
-0.0429682 4.4578e-05 0.0
-0.0428885 -0.000157652 0.0
-0.0426824 -0.000364379 0.0
-0.042348 -0.000574237 0.0
-0.0418846 -0.000785775 0.0
-0.041292 -0.000997463 0.0
-0.0405711 -0.00120771 0.0
-0.0397237 -0.00141488 0.0
-0.0387526 -0.0016173 0.0
-0.0376614 -0.00181328 0.0
-0.0364548 -0.00200115 0.0
-0.0351385 -0.00217925 0.0
-0.0337188 -0.00234599 0.0
-0.0322033 -0.00249982 0.0
-0.0306 -0.00263929 0.0
-0.028918 -0.00276308 0.0
-0.027167 -0.00286997 0.0
-0.0253572 -0.00295891 0.0
-0.0234995 -0.00302901 0.0
-0.0216051 -0.00307958 0.0
-0.0196858 -0.0031101 0.0
-0.0177533 -0.0031203 0.0
-0.0158196 -0.00311008 0.0
-0.0138967 -0.00307959 0.0
-0.0119963 -0.00302921 0.0
-0.0101301 -0.0029595 0.0
-0.00830925 -0.00287128 0.0
-0.00654447 -0.00276554 0.0
-0.0048459 -0.00264347 0.0
-0.00322299 -0.00250643 0.0
-0.00168439 -0.00235591 0.0
-0.000237871 -0.00219356 0.0
0.0011097 -0.0020211 0.0
0.00235249 -0.00184033 0.0
0.00348565 -0.00165311 0.0
0.00450544 -0.00146129 0.0
0.00540916 -0.00126671 0.0
0.00619519 -0.0010712 0.0
0.00686296 -0.000876478 0.0
0.00741292 -0.000684217 0.0
0.00784648 -0.000495966 0.0
0.008166 -0.000313159 0.0
0.00837469 -0.000137105 0.0
0.00847655 3.10163e-05 0.0
0.00847634 0.00019015 0.0
0.00837948 0.000339355 0.0
0.00819201 0.000477782 0.0
0.00792056 0.000604653 0.0
0.00757227 0.000719217 0.0
0.00715486 0.000820715 0.0
0.00667657 0.00090832 0.0
0.00614623 0.000981082 0.0
0.00557333 0.00103786 0.0
0.0049681 0.00107726 0.0
0.00434162 0.00109757 0.0
0.00370596 0.0010967 0.0
0.00307431 0.00107218 0.0
0.00246102 0.00102126 0.0
0.0018816 0.000941072 0.0
0.0013525 0.000829201 0.0
0.000890593 0.000684744 0.0
0.000512188 0.000510455 0.0
0.000231516 0.00031679 0.0
5.89303e-05 0.000129149 0.0
0 0 0.0
0 0 0.0
3.54701e-05 -0.000144064 0.0
0.000108898 -0.000238104 0.0
0.000197457 -0.000284021 0.0
0.000283923 -0.000287716 0.0
0.000354703 -0.000256826 0.0
0.000399025 -0.000199084 0.0
0.000408519 -0.000121444 0.0
0.000376881 -2.9721e-05 0.0
0.000299543 7.14585e-05 0.0
0.000173345 0.000178571 0.0
-3.78591e-06 0.000289044 0.0
-0.000233111 0.000401099 0.0
-0.000515328 0.000513587 0.0
-0.000850767 0.00062585 0.0
-0.00123955 0.000737599 0.0
-0.0016817 0.000848804 0.0
-0.00217723 0.000959609 0.0
-0.00272621 0.00107026 0.0
-0.00332877 0.00118105 0.0
-0.0039851 0.00129226 0.0
-0.00469549 0.00140416 0.0
-0.00546026 0.00151692 0.0
-0.00627973 0.00163067 0.0
-0.00715424 0.00174544 0.0
-0.00808403 0.00186116 0.0
-0.00906927 0.00197766 0.0
-0.01011 0.00209468 0.0
-0.0112059 0.00221186 0.0
-0.0123568 0.00232874 0.0
-0.0135619 0.0024448 0.0
-0.0148202 0.00255941 0.0
-0.0161305 0.00267187 0.0
-0.017491 0.00278142 0.0
-0.0188997 0.00288721 0.0
-0.0203541 0.00298836 0.0
-0.0218513 0.00308393 0.0
-0.0233878 0.00317292 0.0
-0.0249598 0.00325431 0.0
-0.026563 0.00332705 0.0
-0.0281925 0.00339006 0.0
-0.029843 0.00344225 0.0
-0.0315087 0.00348256 0.0
-0.0331834 0.0035099 0.0
-0.0348603 0.00352323 0.0
-0.0365323 0.00352154 0.0
-0.0381919 0.00350387 0.0
-0.0398313 0.00346934 0.0
-0.0414421 0.00341711 0.0
-0.043016 0.00334647 0.0
-0.0445442 0.0032568 0.0
-0.0460179 0.00314758 0.0
-0.0474281 0.00301846 0.0
-0.0487659 0.0028692 0.0
-0.0500222 0.00269974 0.0
-0.0511883 0.00251017 0.0
-0.0522555 0.00230076 0.0
-0.0532153 0.00207197 0.0
-0.0540598 0.00182444 0.0
-0.0547812 0.001559 0.0
-0.0553725 0.0012767 0.0
-0.0558271 0.00097875 0.0
-0.0561391 0.000666584 0.0
-0.0563033 0.000341813 0.0
-0.0563153 6.23151e-06 0.0
-0.0561716 -0.000338189 0.0
-0.0558696 -0.000689317 0.0
-0.0554076 -0.00104487 0.0
-0.054785 -0.00140244 0.0
-0.0540023 -0.0017595 0.0
-0.0530608 -0.00211344 0.0
-0.0519634 -0.00246158 0.0
-0.0507135 -0.00280119 0.0
-0.0493161 -0.00312955 0.0
-0.0477772 -0.00344395 0.0
-0.0461036 -0.00374173 0.0
-0.0443036 -0.00402029 0.0
-0.0423861 -0.00427718 0.0
-0.0403612 -0.00451008 0.0
-0.0382398 -0.00471685 0.0
-0.0360337 -0.00489555 0.0
-0.0337551 -0.00504451 0.0
-0.0314173 -0.00516229 0.0
-0.0290337 -0.00524779 0.0
-0.0266184 -0.00530017 0.0
-0.0241855 -0.00531896 0.0
-0.0217494 -0.00530402 0.0
-0.0193246 -0.00525556 0.0
-0.0169253 -0.00517414 0.0
-0.0145654 -0.00506067 0.0
-0.0122586 -0.00491642 0.0
-0.010018 -0.00474295 0.0
-0.0078559 -0.00454216 0.0
-0.00578399 -0.00431618 0.0
-0.00381301 -0.00406744 0.0
-0.00195269 -0.00379854 0.0
-0.000211717 -0.00351227 0.0
0.00140239 -0.00321155 0.0
0.0028833 -0.00289936 0.0
0.00422595 -0.00257876 0.0
0.00542653 -0.00225277 0.0
0.00648251 -0.00192439 0.0
0.00739263 -0.00159651 0.0
0.00815689 -0.00127191 0.0
0.00877647 -0.000953221 0.0
0.00925372 -0.000642896 0.0
0.00959208 -0.000343197 0.0
0.00979605 -5.61937e-05 0.0
0.00987106 0.000216239 0.0
0.00982345 0.000472399 0.0
0.0096604 0.000710733 0.0
0.00938989 0.000929798 0.0
0.00902062 0.0011282 0.0
0.00856205 0.00130454 0.0
0.00802435 0.00145734 0.0
0.00741847 0.00158492 0.0
0.00675617 0.00168537 0.0
0.0060501 0.00175641 0.0
0.0053139 0.00179533 0.0
0.00456225 0.00179896 0.0
0.00381102 0.00176367 0.0
0.00307721 0.00168555 0.0
0.00237892 0.00156073 0.0
0.00173513 0.0013862 0.0
0.00116523 0.00116111 0.0
0.000688467 0.000889259 0.0
0.000323326 0.000583046 0.0
8.75236e-05 0.000269709 0.0
0 0 0.0
0 0 0.0
3.40448e-05 -0.000198247 0.0
0.000101256 -0.000316887 0.0
0.000176558 -0.000366075 0.0
0.000241253 -0.000356876 0.0
0.000280976 -0.0003005 0.0
0.000284576 -0.000207452 0.0
0.000243471 -8.69791e-05 0.0
0.000151187 5.31799e-05 0.0
2.9867e-06 0.000206819 0.0
-0.000204473 0.000369154 0.0
-0.000473451 0.000536652 0.0
-0.0008054 0.000706831 0.0
-0.0012012 0.000878063 0.0
-0.00166136 0.00104939 0.0
-0.00218617 0.00122035 0.0
-0.00277581 0.00139087 0.0
-0.00343043 0.0015611 0.0
-0.00415024 0.00173131 0.0
-0.00493546 0.00190189 0.0
-0.00578638 0.00207316 0.0
-0.00670334 0.00224543 0.0
-0.00768669 0.00241892 0.0
-0.00873675 0.00259371 0.0
-0.00985378 0.00276978 0.0
-0.0110379 0.00294695 0.0
-0.0122892 0.0031249 0.0
-0.0136073 0.00330318 0.0
-0.0149918 0.00348119 0.0
-0.016442 0.00365818 0.0
-0.0179566 0.0038333 0.0
-0.0195343 0.00400555 0.0
-0.0211729 0.00417385 0.0
-0.0228702 0.004337 0.0
-0.0246232 0.0044937 0.0
-0.0264285 0.00464258 0.0
-0.0282821 0.0047822 0.0
-0.0301796 0.00491106 0.0
-0.032116 0.00502761 0.0
-0.0340854 0.00513026 0.0
-0.0360819 0.00521741 0.0
-0.0380986 0.00528747 0.0
-0.0401283 0.00533885 0.0
-0.0421631 0.00536998 0.0
-0.0441947 0.00537935 0.0
-0.0462145 0.00536554 0.0
-0.0482132 0.00532719 0.0
-0.0501812 0.00526306 0.0
-0.0521089 0.00517204 0.0
-0.0539859 0.00505315 0.0
-0.0558022 0.00490561 0.0
-0.0575472 0.00472879 0.0
-0.0592105 0.00452229 0.0
-0.0607818 0.00428591 0.0
-0.0622507 0.0040197 0.0
-0.0636072 0.00372396 0.0
-0.0648415 0.00339922 0.0
-0.0659442 0.0030463 0.0
-0.0669063 0.00266629 0.0
-0.0677195 0.00226055 0.0
-0.0683759 0.00183073 0.0
-0.0688685 0.00137874 0.0
-0.0691911 0.000906765 0.0
-0.0693382 0.000417253 0.0
-0.0693054 -8.70985e-05 0.0
-0.0690892 -0.000603355 0.0
-0.0686872 -0.00112837 0.0
-0.0680979 -0.00165879 0.0
-0.0673213 -0.0021911 0.0
-0.0663583 -0.00272163 0.0
-0.0652111 -0.00324663 0.0
-0.063883 -0.00376222 0.0
-0.0623787 -0.00426451 0.0
-0.0607039 -0.00474961 0.0
-0.0588658 -0.00521364 0.0
-0.0568724 -0.00565283 0.0
-0.0547331 -0.00606351 0.0
-0.0524584 -0.00644219 0.0
-0.0500596 -0.00678558 0.0
-0.0475492 -0.00709065 0.0
-0.0449404 -0.00735469 0.0
-0.0422474 -0.00757528 0.0
-0.0394847 -0.00775042 0.0
-0.0366678 -0.0078785 0.0
-0.0338124 -0.00795834 0.0
-0.0309345 -0.00798923 0.0
-0.0280504 -0.00797095 0.0
-0.0251764 -0.00790376 0.0
-0.0223287 -0.00778841 0.0
-0.0195231 -0.00762614 0.0
-0.0167753 -0.0074187 0.0
-0.0141002 -0.00716827 0.0
-0.0115121 -0.00687746 0.0
-0.00902455 -0.00654932 0.0
-0.00665005 -0.00618722 0.0
-0.00440011 -0.00579485 0.0
-0.00228508 -0.00537618 0.0
-0.000314054 -0.00493535 0.0
0.00150518 -0.00447667 0.0
0.00316623 -0.00400451 0.0
0.0046641 -0.00352327 0.0
0.00599524 -0.0030373 0.0
0.00715753 -0.00255086 0.0
0.00815028 -0.00206805 0.0
0.00897422 -0.00159279 0.0
0.0096314 -0.00112878 0.0
0.0101252 -0.000679438 0.0
0.0104603 -0.000247956 0.0
0.0106423 0.000162752 0.0
0.0106784 0.000550008 0.0
0.0105763 0.00091134 0.0
0.0103451 0.00124443 0.0
0.00999463 0.00154706 0.0
0.0095357 0.00181699 0.0
0.00898006 0.0020519 0.0
0.00834034 0.00224926 0.0
0.00763014 0.00240623 0.0
0.00686406 0.00251954 0.0
0.00605776 0.00258542 0.0
0.005228 0.00259957 0.0
0.0043927 0.00255722 0.0
0.00357093 0.00245336 0.0
0.00278282 0.00228315 0.0
0.00204943 0.0020429 0.0
0.00139255 0.00173141 0.0
0.00083458 0.00135236 0.0
0.000398748 0.000917733 0.0
0.000110352 0.000452474 0.0
0 0 0.0
0 0 0.0
2.8999e-05 -0.00024532 0.0
8.15627e-05 -0.000380617 0.0
0.000132115 -0.000424018 0.0
0.000161487 -0.000392134 0.0
0.000155133 -0.000300149 0.0
0.000101951 -0.00016158 0.0
-6.49084e-06 1.19456e-05 0.0
-0.000176507 0.000210763 0.0
-0.000412717 0.000427118 0.0
-0.000718412 0.000655008 0.0
-0.00109586 0.000889972 0.0
-0.00154656 0.00112885 0.0
-0.0020715 0.00136955 0.0
-0.00267132 0.00161082 0.0
-0.00334643 0.00185204 0.0
-0.00409718 0.00209307 0.0
-0.00492386 0.00233404 0.0
-0.00582679 0.00257528 0.0
-0.00680632 0.00281719 0.0
-0.00786283 0.00306015 0.0
-0.0089967 0.00330447 0.0
-0.0102083 0.00355033 0.0
-0.0114978 0.00379776 0.0
-0.0128655 0.00404661 0.0
-0.0143113 0.00429655 0.0
-0.0158349 0.00454704 0.0
-0.0174359 0.00479734 0.0
-0.0191134 0.00504655 0.0
-0.0208661 0.00529355 0.0
-0.0226923 0.00553708 0.0
-0.0245898 0.00577568 0.0
-0.026556 0.00600779 0.0
-0.0285877 0.00623167 0.0
-0.030681 0.0064455 0.0
-0.0328315 0.00664732 0.0
-0.0350341 0.00683511 0.0
-0.0372833 0.00700675 0.0
-0.0395727 0.00716012 0.0
-0.0418953 0.007293 0.0
-0.0442436 0.00740323 0.0
-0.0466095 0.00748861 0.0
-0.0489842 0.00754701 0.0
-0.0513583 0.00757635 0.0
-0.0537221 0.00757463 0.0
-0.0560653 0.00753997 0.0
-0.0583773 0.00747063 0.0
-0.0606471 0.00736504 0.0
-0.0628632 0.00722182 0.0
-0.0650143 0.0070398 0.0
-0.0670888 0.00681806 0.0
-0.0690748 0.00655595 0.0
-0.070961 0.00625308 0.0
-0.0727356 0.0059094 0.0
-0.0743875 0.00552516 0.0
-0.0759057 0.00510096 0.0
-0.0772797 0.00463772 0.0
-0.0784993 0.00413674 0.0
-0.079555 0.00359968 0.0
-0.0804382 0.00302856 0.0
-0.0811405 0.00242574 0.0
-0.081655 0.00179396 0.0