# vtk DataFile Version 3.0
Lid-Driven Cavity Flow
ASCII
DATASET STRUCTURED_GRID
DIMENSIONS 129 129 1
POINTS 16641 double
0 0 0.0
0.0078125 0 0.0
0.015625 0 0.0
0.0234375 0 0.0
0.03125 0 0.0
0.0390625 0 0.0
0.046875 0 0.0
0.0546875 0 0.0
0.0625 0 0.0
0.0703125 0 0.0
0.078125 0 0.0
0.0859375 0 0.0
0.09375 0 0.0
0.101562 0 0.0
0.109375 0 0.0
0.117188 0 0.0
0.125 0 0.0
0.132812 0 0.0
0.140625 0 0.0
0.148438 0 0.0
0.15625 0 0.0
0.164062 0 0.0
0.171875 0 0.0
0.179688 0 0.0
0.1875 0 0.0
0.195312 0 0.0
0.203125 0 0.0
0.210938 0 0.0
0.21875 0 0.0
0.226562 0 0.0
0.234375 0 0.0
0.242188 0 0.0
0.25 0 0.0
0.257812 0 0.0
0.265625 0 0.0
0.273438 0 0.0
0.28125 0 0.0
0.289062 0 0.0
0.296875 0 0.0
0.304688 0 0.0
0.3125 0 0.0
0.320312 0 0.0
0.328125 0 0.0
0.335938 0 0.0
0.34375 0 0.0
0.351562 0 0.0
0.359375 0 0.0
0.367188 0 0.0
0.375 0 0.0
0.382812 0 0.0
0.390625 0 0.0
0.398438 0 0.0
0.40625 0 0.0
0.414062 0 0.0
0.421875 0 0.0
0.429688 0 0.0
0.4375 0 0.0
0.445312 0 0.0
0.453125 0 0.0
0.460938 0 0.0
0.46875 0 0.0
0.476562 0 0.0
0.484375 0 0.0
0.492188 0 0.0
0.5 0 0.0
0.507812 0 0.0
0.515625 0 0.0
0.523438 0 0.0
0.53125 0 0.0
0.539062 0 0.0
0.546875 0 0.0
0.554688 0 0.0
0.5625 0 0.0
0.570312 0 0.0
0.578125 0 0.0
0.585938 0 0.0
0.59375 0 0.0
0.601562 0 0.0
0.609375 0 0.0
0.617188 0 0.0
0.625 0 0.0
0.632812 0 0.0
0.640625 0 0.0
0.648438 0 0.0
0.65625 0 0.0
0.664062 0 0.0
0.671875 0 0.0
0.679688 0 0.0
0.6875 0 0.0
0.695312 0 0.0
0.703125 0 0.0
0.710938 0 0.0
0.71875 0 0.0
0.726562 0 0.0
0.734375 0 0.0
0.742188 0 0.0
0.75 0 0.0
0.757812 0 0.0
0.765625 0 0.0
0.773438 0 0.0
0.78125 0 0.0
0.789062 0 0.0
0.796875 0 0.0
0.804688 0 0.0
0.8125 0 0.0
0.820312 0 0.0
0.828125 0 0.0
0.835938 0 0.0
0.84375 0 0.0
0.851562 0 0.0
0.859375 0 0.0
0.867188 0 0.0
0.875 0 0.0
0.882812 0 0.0
0.890625 0 0.0
0.898438 0 0.0
0.90625 0 0.0
0.914062 0 0.0
0.921875 0 0.0
0.929688 0 0.0
0.9375 0 0.0
0.945312 0 0.0
0.953125 0 0.0
0.960938 0 0.0
0.96875 0 0.0
0.976562 0 0.0
0.984375 0 0.0
0.992188 0 0.0
1 0 0.0
0 0.0078125 0.0
0.0078125 0.0078125 0.0
0.015625 0.0078125 0.0
0.0234375 0.0078125 0.0
0.03125 0.0078125 0.0
0.0390625 0.0078125 0.0
0.046875 0.0078125 0.0
0.0546875 0.0078125 0.0
0.0625 0.0078125 0.0
0.0703125 0.0078125 0.0
0.078125 0.0078125 0.0
0.0859375 0.0078125 0.0
0.09375 0.0078125 0.0
0.101562 0.0078125 0.0
0.109375 0.0078125 0.0
0.117188 0.0078125 0.0
0.125 0.0078125 0.0
0.132812 0.0078125 0.0
0.140625 0.0078125 0.0
0.148438 0.0078125 0.0
0.15625 0.0078125 0.0
0.164062 0.0078125 0.0
0.171875 0.0078125 0.0
0.179688 0.0078125 0.0
0.1875 0.0078125 0.0
0.195312 0.0078125 0.0
0.203125 0.0078125 0.0
0.210938 0.0078125 0.0
0.21875 0.0078125 0.0
0.226562 0.0078125 0.0
0.234375 0.0078125 0.0
0.242188 0.0078125 0.0
0.25 0.0078125 0.0
0.257812 0.0078125 0.0
0.265625 0.0078125 0.0
0.273438 0.0078125 0.0
0.28125 0.0078125 0.0
0.289062 0.0078125 0.0
0.296875 0.0078125 0.0
0.304688 0.0078125 0.0
0.3125 0.0078125 0.0
0.320312 0.0078125 0.0
0.328125 0.0078125 0.0
0.335938 0.0078125 0.0
0.34375 0.0078125 0.0
0.351562 0.0078125 0.0
0.359375 0.0078125 0.0
0.367188 0.0078125 0.0
0.375 0.0078125 0.0
0.382812 0.0078125 0.0
0.390625 0.0078125 0.0
0.398438 0.0078125 0.0
0.40625 0.0078125 0.0
0.414062 0.0078125 0.0
0.421875 0.0078125 0.0
0.429688 0.0078125 0.0
0.4375 0.0078125 0.0
0.445312 0.0078125 0.0
0.453125 0.0078125 0.0
0.460938 0.0078125 0.0
0.46875 0.0078125 0.0
0.476562 0.0078125 0.0
0.484375 0.0078125 0.0
0.492188 0.0078125 0.0
0.5 0.0078125 0.0
0.507812 0.0078125 0.0
0.515625 0.0078125 0.0
0.523438 0.0078125 0.0
0.53125 0.0078125 0.0
0.539062 0.0078125 0.0
0.546875 0.0078125 0.0
0.554688 0.0078125 0.0
0.5625 0.0078125 0.0
0.570312 0.0078125 0.0
0.578125 0.0078125 0.0
0.585938 0.0078125 0.0
0.59375 0.0078125 0.0
0.601562 0.0078125 0.0
0.609375 0.0078125 0.0
0.617188 0.0078125 0.0
0.625 0.0078125 0.0
0.632812 0.0078125 0.0
0.640625 0.0078125 0.0
0.648438 0.0078125 0.0
0.65625 0.0078125 0.0
0.664062 0.0078125 0.0
0.671875 0.0078125 0.0
0.679688 0.0078125 0.0
0.6875 0.0078125 0.0
0.695312 0.0078125 0.0
0.703125 0.0078125 0.0
0.710938 0.0078125 0.0
0.71875 0.0078125 0.0
0.726562 0.0078125 0.0
0.734375 0.0078125 0.0
0.742188 0.0078125 0.0
0.75 0.0078125 0.0
0.757812 0.0078125 0.0
0.765625 0.0078125 0.0
0.773438 0.0078125 0.0
0.78125 0.0078125 0.0
0.789062 0.0078125 0.0
0.796875 0.0078125 0.0
0.804688 0.0078125 0.0
0.8125 0.0078125 0.0
0.820312 0.0078125 0.0
0.828125 0.0078125 0.0
0.835938 0.0078125 0.0
0.84375 0.0078125 0.0
0.851562 0.0078125 0.0
0.859375 0.0078125 0.0
0.867188 0.0078125 0.0
0.875 0.0078125 0.0
0.882812 0.0078125 0.0
0.890625 0.0078125 0.0
0.898438 0.0078125 0.0
0.90625 0.0078125 0.0
0.914062 0.0078125 0.0
0.921875 0.0078125 0.0
0.929688 0.0078125 0.0
0.9375 0.0078125 0.0
0.945312 0.0078125 0.0
0.953125 0.0078125 0.0
0.960938 0.0078125 0.0
0.96875 0.0078125 0.0
0.976562 0.0078125 0.0
0.984375 0.0078125 0.0
0.992188 0.0078125 0.0
1 0.0078125 0.0
0 0.015625 0.0
0.0078125 0.015625 0.0
0.015625 0.015625 0.0
0.0234375 0.015625 0.0
0.03125 0.015625 0.0
0.0390625 0.015625 0.0
0.046875 0.015625 0.0
0.0546875 0.015625 0.0
0.0625 0.015625 0.0
0.0703125 0.015625 0.0
0.078125 0.015625 0.0
0.0859375 0.015625 0.0
0.09375 0.015625 0.0
0.101562 0.015625 0.0
0.109375 0.015625 0.0
0.117188 0.015625 0.0
0.125 0.015625 0.0
0.132812 0.015625 0.0
0.140625 0.015625 0.0
0.148438 0.015625 0.0
0.15625 0.015625 0.0
0.164062 0.015625 0.0
0.171875 0.015625 0.0
0.179688 0.015625 0.0
0.1875 0.015625 0.0
0.195312 0.015625 0.0
0.203125 0.015625 0.0
0.210938 0.015625 0.0
0.21875 0.015625 0.0
0.226562 0.015625 0.0
0.234375 0.015625 0.0
0.242188 0.015625 0.0
0.25 0.015625 0.0
0.257812 0.015625 0.0
0.265625 0.015625 0.0
0.273438 0.015625 0.0
0.28125 0.015625 0.0
0.289062 0.015625 0.0
0.296875 0.015625 0.0
0.304688 0.015625 0.0
0.3125 0.015625 0.0
0.320312 0.015625 0.0
0.328125 0.015625 0.0
0.335938 0.015625 0.0
0.34375 0.015625 0.0
0.351562 0.015625 0.0
0.359375 0.015625 0.0
0.367188 0.015625 0.0
0.375 0.015625 0.0
0.382812 0.015625 0.0
0.390625 0.015625 0.0
0.398438 0.015625 0.0
0.40625 0.015625 0.0
0.414062 0.015625 0.0
0.421875 0.015625 0.0
0.429688 0.015625 0.0
0.4375 0.015625 0.0
0.445312 0.015625 0.0
0.453125 0.015625 0.0
0.460938 0.015625 0.0
0.46875 0.015625 0.0
0.476562 0.015625 0.0
0.484375 0.015625 0.0
0.492188 0.015625 0.0
0.5 0.015625 0.0
0.507812 0.015625 0.0
0.515625 0.015625 0.0
0.523438 0.015625 0.0
0.53125 0.015625 0.0
0.539062 0.015625 0.0
0.546875 0.015625 0.0
0.554688 0.015625 0.0
0.5625 0.015625 0.0
0.570312 0.015625 0.0
0.578125 0.015625 0.0
0.585938 0.015625 0.0
0.59375 0.015625 0.0
0.601562 0.015625 0.0
0.609375 0.015625 0.0
0.617188 0.015625 0.0
0.625 0.015625 0.0
0.632812 0.015625 0.0
0.640625 0.015625 0.0
0.648438 0.015625 0.0
0.65625 0.015625 0.0
0.664062 0.015625 0.0
0.671875 0.015625 0.0
0.679688 0.015625 0.0
0.6875 0.015625 0.0
0.695312 0.015625 0.0
0.703125 0.015625 0.0
0.710938 0.015625 0.0
0.71875 0.015625 0.0
0.726562 0.015625 0.0
0.734375 0.015625 0.0
0.742188 0.015625 0.0
0.75 0.015625 0.0
0.757812 0.015625 0.0
0.765625 0.015625 0.0
0.773438 0.015625 0.0
0.78125 0.015625 0.0
0.789062 0.015625 0.0
0.796875 0.015625 0.0
0.804688 0.015625 0.0
0.8125 0.015625 0.0
0.820312 0.015625 0.0
0.828125 0.015625 0.0
0.835938 0.015625 0.0
0.84375 0.015625 0.0
0.851562 0.015625 0.0
0.859375 0.015625 0.0
0.867188 0.015625 0.0
0.875 0.015625 0.0
0.882812 0.015625 0.0
0.890625 0.015625 0.0
0.898438 0.015625 0.0
0.90625 0.015625 0.0
0.914062 0.015625 0.0
0.921875 0.015625 0.0
0.929688 0.015625 0.0
0.9375 0.015625 0.0
0.945312 0.015625 0.0
0.953125 0.015625 0.0
0.960938 0.015625 0.0
0.96875 0.015625 0.0
0.976562 0.015625 0.0
0.984375 0.015625 0.0
0.992188 0.015625 0.0
1 0.015625 0.0
0 0.0234375 0.0
0.0078125 0.0234375 0.0
0.015625 0.0234375 0.0
0.0234375 0.0234375 0.0
0.03125 0.0234375 0.0
0.0390625 0.0234375 0.0
0.046875 0.0234375 0.0
0.0546875 0.0234375 0.0
0.0625 0.0234375 0.0
0.0703125 0.0234375 0.0
0.078125 0.0234375 0.0
0.0859375 0.0234375 0.0
0.09375 0.0234375 0.0
0.101562 0.0234375 0.0
0.109375 0.0234375 0.0
0.117188 0.0234375 0.0
0.125 0.0234375 0.0
0.132812 0.0234375 0.0
0.140625 0.0234375 0.0
0.148438 0.0234375 0.0
0.15625 0.0234375 0.0
0.164062 0.0234375 0.0
0.171875 0.0234375 0.0
0.179688 0.0234375 0.0
0.1875 0.0234375 0.0
0.195312 0.0234375 0.0
0.203125 0.0234375 0.0
0.210938 0.0234375 0.0
0.21875 0.0234375 0.0
0.226562 0.0234375 0.0
0.234375 0.0234375 0.0
0.242188 0.0234375 0.0
0.25 0.0234375 0.0
0.257812 0.0234375 0.0
0.265625 0.0234375 0.0
0.273438 0.0234375 0.0
0.28125 0.0234375 0.0
0.289062 0.0234375 0.0
0.296875 0.0234375 0.0
0.304688 0.0234375 0.0
0.3125 0.0234375 0.0
0.320312 0.0234375 0.0
0.328125 0.0234375 0.0
0.335938 0.0234375 0.0
0.34375 0.0234375 0.0
0.351562 0.0234375 0.0
0.359375 0.0234375 0.0
0.367188 0.0234375 0.0
0.375 0.0234375 0.0
0.382812 0.0234375 0.0
0.390625 0.0234375 0.0
0.398438 0.0234375 0.0
0.40625 0.0234375 0.0
0.414062 0.0234375 0.0
0.421875 0.0234375 0.0
0.429688 0.0234375 0.0
0.4375 0.0234375 0.0
0.445312 0.0234375 0.0
0.453125 0.0234375 0.0
0.460938 0.0234375 0.0
0.46875 0.0234375 0.0
0.476562 0.0234375 0.0
0.484375 0.0234375 0.0
0.492188 0.0234375 0.0
0.5 0.0234375 0.0
0.507812 0.0234375 0.0
0.515625 0.0234375 0.0
0.523438 0.0234375 0.0
0.53125 0.0234375 0.0
0.539062 0.0234375 0.0
0.546875 0.0234375 0.0
0.554688 0.0234375 0.0
0.5625 0.0234375 0.0
0.570312 0.0234375 0.0
0.578125 0.0234375 0.0
0.585938 0.0234375 0.0
0.59375 0.0234375 0.0
0.601562 0.0234375 0.0
0.609375 0.0234375 0.0
0.617188 0.0234375 0.0
0.625 0.0234375 0.0
0.632812 0.0234375 0.0
0.640625 0.0234375 0.0
0.648438 0.0234375 0.0
0.65625 0.0234375 0.0
0.664062 0.0234375 0.0
0.671875 0.0234375 0.0
0.679688 0.0234375 0.0
0.6875 0.0234375 0.0
0.695312 0.0234375 0.0
0.703125 0.0234375 0.0
0.710938 0.0234375 0.0
0.71875 0.0234375 0.0
0.726562 0.0234375 0.0
0.734375 0.0234375 0.0
0.742188 0.0234375 0.0
0.75 0.0234375 0.0
0.757812 0.0234375 0.0
0.765625 0.0234375 0.0
0.773438 0.0234375 0.0
0.78125 0.0234375 0.0
0.789062 0.0234375 0.0
0.796875 0.0234375 0.0
[...]
POINT_DATA 16641
VECTORS velocity double
0 0 0.0
0 0 0.0
0 0 0.0
0 0 0.0
0 0 0.0
0 0 0.0
0 0 0.0
0 0 0.0
0 0 0.0
0 0 0.0
0 0 0.0
0 0 0.0
0 0 0.0
0 0 0.0
0 0 0.0
0 0 0.0
0 0 0.0
0 0 0.0
0 0 0.0
0 0 0.0
0 0 0.0
0 0 0.0
0 0 0.0
0 0 0.0
0 0 0.0
0 0 0.0
0 0 0.0
0 0 0.0
0 0 0.0
0 0 0.0
0 0 0.0
0 0 0.0
0 0 0.0
0 0 0.0
0 0 0.0
0 0 0.0
0 0 0.0
0 0 0.0
0 0 0.0
0 0 0.0
0 0 0.0
0 0 0.0
0 0 0.0
0 0 0.0
0 0 0.0
0 0 0.0
0 0 0.0
0 0 0.0
0 0 0.0
0 0 0.0
0 0 0.0
0 0 0.0
0 0 0.0
0 0 0.0
0 0 0.0
0 0 0.0
0 0 0.0
0 0 0.0
0 0 0.0
0 0 0.0
0 0 0.0
0 0 0.0
0 0 0.0
0 0 0.0
0 0 0.0
0 0 0.0
0 0 0.0
0 0 0.0
0 0 0.0
0 0 0.0
0 0 0.0
0 0 0.0
0 0 0.0
0 0 0.0
0 0 0.0
0 0 0.0
0 0 0.0
0 0 0.0
0 0 0.0
0 0 0.0
0 0 0.0
0 0 0.0
0 0 0.0
0 0 0.0
0 0 0.0
0 0 0.0
0 0 0.0
0 0 0.0
0 0 0.0
0 0 0.0
0 0 0.0
0 0 0.0
0 0 0.0
0 0 0.0
0 0 0.0
0 0 0.0
0 0 0.0
0 0 0.0
0 0 0.0
0 0 0.0
0 0 0.0
0 0 0.0
0 0 0.0
0 0 0.0
0 0 0.0
0 0 0.0
0 0 0.0
0 0 0.0
0 0 0.0
0 0 0.0
0 0 0.0
0 0 0.0
0 0 0.0
0 0 0.0
0 0 0.0
0 0 0.0
0 0 0.0
0 0 0.0
0 0 0.0
0 0 0.0
0 0 0.0
0 0 0.0
0 0 0.0
0 0 0.0
0 0 0.0
0 0 0.0
0 0 0.0
0 0 0.0
0 0 0.0
0 0 0.0
1.35813e-05 -1.35976e-05 0.0
8.03576e-05 -4.76437e-05 0.0
0.000197512 -7.73871e-05 0.0
0.000352644 -9.77e-05 0.0
0.000531685 -0.000108935 0.0
0.000721789 -0.000112681 0.0
0.000912187 -0.000110587 0.0
0.00109427 -0.00010409 0.0
0.00126139 -9.43792e-05 0.0
0.00140863 -8.24253e-05 0.0
0.00153249 -6.90097e-05 0.0
0.00163068 -5.47498e-05 0.0
0.00170183 -4.0119e-05 0.0
0.00174529 -2.54638e-05 0.0
0.00176094 -1.10178e-05 0.0
0.00174901 3.08353e-06 0.0
0.00170989 1.67893e-05 0.0
0.00164403 3.01191e-05 0.0
0.00155184 4.31488e-05 0.0
0.00143356 5.59964e-05 0.0
0.00128921 6.8808e-05 0.0
0.0011186 8.17454e-05 0.0
0.000921232 9.49736e-05 0.0
0.000696372 0.000108651 0.0
0.000443035 0.00012292 0.0
0.000160026 0.000137902 0.0
-0.000154016 0.000153691 0.0
-0.000500565 0.000170353 0.0
-0.000881158 0.000187923 0.0
-0.00129734 0.000206407 0.0
-0.00175059 0.00022578 0.0
-0.0022423 0.000245992 0.0
-0.0027737 0.000266965 0.0
-0.00334583 0.000288596 0.0
-0.00395945 0.000310761 0.0
-0.00461505 0.000333312 0.0
-0.0053128 0.000356078 0.0
-0.00605246 0.00037887 0.0
-0.00683342 0.000401475 0.0
-0.00765461 0.000423663 0.0
-0.00851449 0.000445183 0.0
-0.00941102 0.000465767 0.0
-0.0103416 0.000485132 0.0
-0.0113032 0.000502979 0.0
-0.0122921 0.000519002 0.0
-0.013304 0.000532885 0.0
-0.0143343 0.000544309 0.0
-0.0153774 0.000552956 0.0
-0.0164277 0.000558512 0.0
-0.0174786 0.000560673 0.0
-0.0185234 0.000559149 0.0
-0.0195547 0.000553671 0.0
-0.0205648 0.000543994 0.0
-0.0215458 0.000529903 0.0
-0.0224895 0.000511219 0.0
-0.0233874 0.000487803 0.0
-0.024231 0.000459561 0.0
-0.0250117 0.00042645 0.0
-0.0257212 0.00038848 0.0
-0.0263512 0.000345719 0.0
-0.0268937 0.000298299 0.0
-0.0273412 0.000246415 0.0
-0.0276866 0.000190329 0.0
-0.0279234 0.000130372 0.0
-0.028046 6.69451e-05 0.0
-0.0280493 5.17805e-07 0.0
-0.0279294 -6.83728e-05 0.0
-0.0276834 -0.000139125 0.0
-0.0273094 -0.000211075 0.0
-0.0268067 -0.000283505 0.0
-0.0261759 -0.000355649 0.0
-0.0254189 -0.000426703 0.0
-0.0245391 -0.000495833 0.0
-0.023541 -0.00056219 0.0
-0.0224307 -0.000624924 0.0
-0.0212155 -0.000683196 0.0
-0.0199042 -0.000736198 0.0
-0.0185068 -0.000783169 0.0
-0.0170343 -0.000823413 0.0
-0.0154989 -0.000856313 0.0
-0.0139136 -0.000881352 0.0
-0.0122922 -0.000898127 0.0
-0.0106489 -0.000906362 0.0
-0.00899855 -0.000905916 0.0
-0.00735574 -0.000896796 0.0
-0.00573514 -0.000879157 0.0
-0.00415103 -0.000853302 0.0
-0.00261714 -0.000819681 0.0
-0.00114635 -0.000778877 0.0
0.000249429 -0.000731601 0.0
0.00155952 -0.000678668 0.0
0.00277462 -0.000620981 0.0
0.00388689 -0.00055951 0.0
0.00489013 -0.000495266 0.0
0.00577981 -0.000429273 0.0
0.00655307 -0.000362549 0.0
0.00720875 -0.000296077 0.0
0.00774732 -0.000230786 0.0
0.00817079 -0.000167525 0.0
0.00848258 -0.000107053 0.0
0.0086874 -5.00216e-05 0.0
0.00879107 3.0323e-06 0.0
0.00880033 5.16941e-05 0.0
0.00872263 9.56714e-05 0.0
0.00856596 0.000134792 0.0
0.00833864 0.000168999 0.0
0.00804911 0.000198341 0.0
0.00770578 0.000222962 0.0
0.00731686 0.000243086 0.0
0.0068902 0.000259004 0.0
0.00643323 0.000271051 0.0
0.00595287 0.000279588 0.0
0.00545547 0.000284979 0.0
0.00494684 0.00028756 0.0
0.00443233 0.000287611 0.0
0.00391688 0.000285316 0.0
0.00340531 0.000280728 0.0
0.00290245 0.000273716 0.0
0.00241353 0.000263928 0.0
0.00194452 0.000250734 0.0
0.00150255 0.000233198 0.0
0.0010963 0.00021007 0.0
0.000736265 0.000179874 0.0
0.000434699 0.000141221 0.0
0.00020471 9.37487e-05 0.0
5.75553e-05 4.07089e-05 0.0
-3.95022e-06 -4.19478e-06 0.0
0 0 0.0
0 0 0.0
4.76725e-05 -8.03576e-05 0.0
0.000184125 -0.000183931 0.0
0.000396029 -0.000272287 0.0
0.000664228 -0.000334172 0.0
0.000967835 -0.000369145 0.0
0.00128705 -0.000380503 0.0
0.00160453 -0.000372479 0.0
0.00190585 -0.000349204 0.0
0.00217948 -0.000314361 0.0
0.00241654 -0.000271104 0.0
0.00261049 -0.000222054 0.0
0.00275675 -0.000169334 0.0
0.00285234 -0.000114607 0.0
0.00289554 -5.91136e-05 0.0
0.00288553 -3.71743e-06 0.0
0.00282215 5.1056e-05 0.0
0.00270557 0.000104973 0.0
0.0025361 0.000158043 0.0
0.00231399 0.000210476 0.0
0.0020393 0.000262629 0.0
0.00171173 0.000314959 0.0
0.00133064 0.000367983 0.0
0.000894953 0.000422226 0.0
0.000403182 0.000478197 0.0
-0.000146526 0.000536346 0.0
-0.00075634 0.000597051 0.0
-0.00142866 0.000660591 0.0
-0.00216603 0.000727142 0.0
-0.00297104 0.00079677 0.0
-0.00384619 0.000869429 0.0
-0.00479386 0.000944964 0.0
-0.00581612 0.00102312 0.0
-0.00691469 0.00110353 0.0
-0.00809085 0.00118574 0.0
-0.00934532 0.00126923 0.0
-0.0106782 0.00135335 0.0
-0.0120889 0.00143741 0.0
-0.0135761 0.00152063 0.0
-0.0151376 0.00160215 0.0
-0.0167703 0.00168107 0.0
-0.0184703 0.0017564 0.0
-0.0202327 0.00182713 0.0
-0.0220515 0.00189218 0.0
-0.0239197 0.00195045 0.0
-0.0258295 0.00200082 0.0
-0.0277719 0.00204218 0.0
-0.0297371 0.00207341 0.0
-0.0317141 0.00209342 0.0
-0.0336915 0.00210118 0.0
-0.0356566 0.00209569 0.0
-0.0375963 0.00207605 0.0
-0.0394968 0.00204145 0.0
-0.0413438 0.00199119 0.0
-0.0431228 0.0019247 0.0
-0.0448188 0.00184155 0.0
-0.0464168 0.00174146 0.0
-0.0479019 0.00162433 0.0
-0.0492596 0.00149025 0.0
-0.0504754 0.00133948 0.0
-0.0515357 0.00117251 0.0
-0.0524274 0.000990003 0.0
-0.0531385 0.00079287 0.0
-0.0536578 0.000582217 0.0
-0.0539755 0.000359373 0.0
-0.0540832 0.000125877 0.0
-0.0539738 -0.00011652 0.0
-0.0536421 -0.000365873 0.0
-0.0530846 -0.000620048 0.0
-0.0522997 -0.000876742 0.0
-0.0512878 -0.0011335 0.0
-0.0500514 -0.00138775 0.0
-0.0485952 -0.00163681 0.0
-0.0469259 -0.00187795 0.0
-0.0450526 -0.00210842 0.0
-0.0429865 -0.00232547 0.0
-0.0407409 -0.00252642 0.0
-0.0383311 -0.00270872 0.0
-0.0357743 -0.00286995 0.0
-0.0330897 -0.00300793 0.0
-0.0302978 -0.00312072 0.0
-0.0274206 -0.00320671 0.0
-0.0244813 -0.00326463 0.0
-0.0215037 -0.00329361 0.0
-0.0185124 -0.00329321 0.0
-0.0155319 -0.00326342 0.0
-0.012587 -0.0032047 0.0
-0.00970146 -0.003118 0.0
-0.00689866 -0.00300468 0.0
-0.00420054 -0.00286657 0.0
-0.00162762 -0.00270588 0.0
0.000801459 -0.00252519 0.0
0.00307011 -0.00232736 0.0
0.00516412 -0.00211552 0.0
0.00707175 -0.00189292 0.0
0.00878396 -0.00166294 0.0
0.0102944 -0.00142895 0.0
0.0115996 -0.00119425 0.0
0.0126987 -0.000962034 0.0
0.0135935 -0.000735254 0.0
0.0142882 -0.000516612 0.0
0.0147896 -0.000308493 0.0
0.015106 -0.000112926 0.0
0.015248 6.84422e-05 0.0
0.0152275 0.000234363 0.0
0.0150572 0.000383986 0.0
0.0147512 0.000516848 0.0
0.0143237 0.000632858 0.0
0.0137892 0.000732259 0.0
0.0131621 0.000815587 0.0
0.0124565 0.000883622 0.0
0.0116859 0.000937324 0.0
0.0108632 0.000977762 0.0
0.0100005 0.00100603 0.0
0.00910896 0.00102315 0.0
0.00819927 0.00102996 0.0
0.00728148 0.00102701 0.0
0.00636538 0.00101443 0.0
0.00546089 0.00099178 0.0
0.00457847 0.000957928 0.0
0.00372969 0.000910977 0.0
0.00292773 0.000848222 0.0
0.00218781 0.000766288 0.0
0.00152735 0.000661602 0.0
0.000965516 0.000531555 0.0
0.000521648 0.000377144 0.0
0.000211754 0.00020866 0.0
4.21754e-05 5.75553e-05 0.0
0 0 0.0
0 0 0.0
7.77003e-05 -0.000197722 0.0
0.000273379 -0.000396001 0.0
0.000559081 -0.000557491 0.0
0.000908347 -0.000669506 0.0
0.00129547 -0.000731759 0.0
0.00169652 -0.00074938 0.0
0.00209022 -0.000729389 0.0
0.0024585 -0.000679033 0.0
0.00278651 -0.000605062 0.0
0.00306251 -0.000513433 0.0
0.00327753 -0.00040922 0.0
0.00342503 -0.000296604 0.0
0.00350045 -0.00017891 0.0
0.0035008 -5.86583e-05 0.0
0.00342431 6.23681e-05 0.0
0.00327004 0.000183048 0.0
0.00303754 0.000302841 0.0
0.00272657 0.000421694 0.0
0.00233685 0.000539952 0.0
0.0018679 0.000658259 0.0
0.00131888 0.000777463 0.0
0.000688489 0.000898525 0.0
-2.50195e-05 0.00102243 0.0
-0.000823868 0.00115013 0.0
-0.00171069 0.00128244 0.0
-0.00268842 0.00142004 0.0
-0.00376024 0.00156338 0.0
-0.00492938 0.00171273 0.0
-0.00619903 0.00186809 0.0
-0.00757215 0.00202923 0.0
-0.00905139 0.00219571 0.0
-0.0106389 0.00236683 0.0
-0.0123361 0.0025417 0.0
-0.0141437 0.00271922 0.0
-0.0160618 0.00289811 0.0
-0.018089 0.0030769 0.0
-0.0202233 0.00325397 0.0
-0.0224613 0.00342755 0.0
-0.0247984 0.00359571 0.0
-0.0272287 0.00375642 0.0
-0.0297449 0.00390755 0.0
-0.0323386 0.00404688 0.0
-0.0349998 0.00417214 0.0
-0.0377171 0.00428101 0.0
-0.0404779 0.00437121 0.0
-0.0432683 0.00444046 0.0
-0.0460733 0.00448654 0.0
-0.0488766 0.00450736 0.0
-0.0516611 0.00450094 0.0
-0.0544087 0.00446548 0.0
-0.0571007 0.00439937 0.0
-0.0597178 0.00430125 0.0
-0.0622404 0.00417 0.0
-0.0646487 0.00400481 0.0
-0.0669229 0.0038052 0.0
-0.0690434 0.00357098 0.0
-0.0709911 0.00330237 0.0
-0.0727475 0.00299992 0.0
-0.0742947 0.0026646 0.0
-0.0756163 0.00229774 0.0
-0.0766965 0.00190109 0.0
-0.0775215 0.00147678 0.0
-0.0780786 0.00102736 0.0
-0.078357 0.000555735 0.0
-0.078348 6.52142e-05 0.0
-0.0780447 -0.00044055 0.0
-0.0774424 -0.000957566 0.0
-0.0765387 -0.00148153 0.0
-0.0753337 -0.00200788 0.0
-0.0738298 -0.00253179 0.0
-0.072032 -0.00304828 0.0
-0.0699478 -0.00355221 0.0
-0.0675875 -0.00403838 0.0
-0.0649636 -0.00450158 0.0
-0.0620913 -0.00493667 0.0
-0.0589884 -0.00533865 0.0
-0.0556747 -0.00570276 0.0
-0.0521725 -0.00602454 0.0
-0.0485059 -0.00629994 0.0
-0.0447009 -0.00652538 0.0
-0.0407853 -0.00669787 0.0
-0.0367878 -0.00681505 0.0
-0.0327384 -0.00687527 0.0
-0.0286676 -0.00687767 0.0
-0.0246063 -0.0068222 0.0
-0.0205853 -0.00670962 0.0
-0.016635 -0.0065416 0.0
-0.0127847 -0.0063206 0.0
-0.00906278 -0.00604992 0.0
-0.00549567 -0.0057336 0.0
-0.00210792 -0.0053764 0.0
0.00107829 -0.00498364 0.0
0.00404349 -0.00456115 0.0
0.0067711 -0.00411511 0.0
0.00924771 -0.00365197 0.0
0.0114632 -0.00317822 0.0
0.0134107 -0.00270035 0.0
0.015087 -0.00222464 0.0
0.0164919 -0.00175705 0.0
0.0176288 -0.00130311 0.0
0.0185037 -0.000867797 0.0
0.0191258 -0.000455456 0.0
0.0195065 -6.97325e-05 0.0
0.0196597 0.000286471 0.0
0.0196008 0.000611016 0.0
0.0193467 0.000902527 0.0
0.0189155 0.00116036 0.0
0.0183255 0.00138456 0.0
0.0175958 0.00157578 0.0
0.016745 0.00173518 0.0
0.0157915 0.00186433 0.0
0.014753 0.00196505 0.0
0.0136467 0.00203925 0.0
0.0124888 0.00208876 0.0
0.0112948 0.00211509 0.0
0.0100797 0.00211921 0.0
0.00885812 0.00210132 0.0
0.00764489 0.00206063 0.0
0.00645535 0.00199513 0.0
0.00530598 0.00190148 0.0
0.00421486 0.00177508 0.0
0.00320205 0.00161045 0.0
0.0022896 0.00140216 0.0
0.00150099 0.00114692 0.0
0.000859729 0.000847511 0.0
0.000386856 0.000520182 0.0
9.77423e-05 0.000207559 0.0
0 0 0.0
0 0 0.0
9.86426e-05 -0.000353737 0.0
0.000337029 -0.000665312 0.0
0.000674009 -0.000907255 0.0
0.00107559 -0.00107056 0.0
0.00151164 -0.00115731 0.0
0.00195514 -0.00117525 0.0
0.00238234 -0.00113446 0.0
0.00277285 -0.00104549 0.0
0.00310972 -0.000918372 0.0
0.00337924 -0.000762132 0.0
0.00357067 -0.000584581 0.0
0.00367586 -0.000392244 0.0
0.00368884 -0.000190369 0.0
0.00360542 1.70199e-05 0.0
0.00342275 0.000227036 0.0
0.0031389 0.000437826 0.0
0.00275256 0.000648449 0.0
0.00226267 0.000858735 0.0
0.00166819 0.00106914 0.0
0.000967855 0.0012806 0.0
0.000160078 0.00149437 0.0
-0.000757175 0.00171188 0.0
-0.0017864 0.00193458 0.0
-0.00293051 0.00216386 0.0
-0.00419281 0.0024009 0.0
-0.00557683 0.00264661 0.0
-0.0070862 0.00290155 0.0
-0.00872449 0.00316593 0.0
-0.010495 0.00343954 0.0
-0.0124007 0.00372179 0.0
-0.0144439 0.00401166 0.0
-0.0166261 0.00430778 0.0
-0.0189477 0.0046084 0.0
-0.0214084 0.00491144 0.0
-0.0240063 0.00521451 0.0
-0.0267383 0.0055149 0.0
-0.0295997 0.00580969 0.0
-0.0325844 0.00609569 0.0
-0.0356846 0.00636952 0.0
-0.0388909 0.00662764 0.0
-0.042192 0.00686637 0.0
-0.0455752 0.00708196 0.0
-0.0490261 0.00727062 0.0
-0.0525286 0.00742857 0.0
-0.0560653 0.00755209 0.0
-0.0596173 0.0076376 0.0
-0.0631644 0.00768169 0.0
-0.0666856 0.0076812 0.0
-0.0701588 0.00763324 0.0
-0.0735612 0.00753527 0.0
-0.0768697 0.00738516 0.0
-0.0800607 0.00718118 0.0
-0.0831108 0.00692211 0.0
-0.0859966 0.00660721 0.0
-0.0886954 0.00623628 0.0
-0.0911848 0.00580969 0.0
-0.0934435 0.00532838 0.0
-0.0954514 0.00479387 0.0
-0.0971893 0.00420827 0.0
-0.0986399 0.00357428 0.0
-0.0997872 0.0028952 0.0
-0.100617 0.0021749 0.0
-0.101118 0.00141779 0.0
-0.10128 0.000628841 0.0
-0.101094 -0.000186465 0.0
-0.100556 -0.00102217 0.0
-0.0996633 -0.00187187 0.0
-0.0984143 -0.00272875 0.0
-0.0968117 -0.00358568 0.0
-0.09486 -0.00443522 0.0
-0.0925666 -0.00526969 0.0
-0.0899417 -0.00608131 0.0
-0.0869978 -0.00686221 0.0
-0.0837503 -0.00760455 0.0
-0.080217 -0.00830065 0.0
-0.0764183 -0.00894304 0.0
-0.0723769 -0.00952463 0.0
-0.0681178 -0.0100388 0.0
-0.0636682 -0.0104794 0.0
-0.059057 -0.0108413 0.0
-0.0543149 -0.0111199 0.0
-0.0494739 -0.0113116 0.0
-0.0445674 -0.0114138 0.0
-0.0396291 -0.0114253 0.0
-0.0346937 -0.0113457 0.0
-0.0297956 -0.011176 0.0
-0.0249691 -0.0109186 0.0
-0.0202475 -0.0105769 0.0
-0.0156633 -0.0101556 0.0
-0.0112472 -0.00966074 0.0
-0.00702817 -0.00909915 0.0
-0.00303264 -0.00847878 0.0
0.00071551 -0.00780833 0.0
0.00419544 -0.00709714 0.0
0.00738957 -0.006355 0.0
0.0102838 -0.00559195 0.0
0.0128677 -0.00481807 0.0
0.0151347 -0.00404325 0.0
0.0170816 -0.00327703 0.0
0.0187093 -0.00252838 0.0
0.0200221 -0.00180551 0.0
0.0210278 -0.00111578 0.0
0.0217371 -0.000465502 0.0
0.0221638 0.000140101 0.0
0.0223237 0.000696963 0.0
0.0222352 0.00120219 0.0
0.0219179 0.00165406 0.0
0.0213926 0.00205192 0.0
0.0206811 0.00239614 0.0
0.0198052 0.00268796 0.0
0.0187871 0.00292929 0.0
0.0176484 0.00312251 0.0
0.0164104 0.00327026 0.0
0.0150935 0.00337506 0.0
0.0137178 0.00343907 0.0
0.0123026 0.00346369 0.0
0.0108673 0.00344923 0.0
0.00943103 0.00339455 0.0
0.00801354 0.00329684 0.0
0.00663556 0.00315147 0.0
0.00531921 0.00295215 0.0
0.00408835 0.00269155 0.0
0.00296856 0.00236266 0.0
0.00198688 0.00196142 0.0
0.00117111 0.00149128 0.0
0.000549003 0.000970647 0.0
0.000148342 0.000444411 0.0
0 0 0.0
0 0 0.0
0.000110816 -0.000534752 0.0
0.000374342 -0.000971367 0.0
0.000739677 -0.00129605 0.0
0.00116627 -0.00150714 0.0
0.00161994 -0.00161131 0.0
0.00207113 -0.00162008 0.0
0.00249428 -0.0015471 0.0
0.00286757 -0.00140642 0.0
0.0031727 -0.00121145 0.0
0.00339469 -0.000974379 0.0
0.00352156 -0.000705832 0.0
0.00354395 -0.000414775 0.0
0.00345472 -0.000108478 0.0
0.00324855 0.000207434 0.0
0.00292149 0.00052889 0.0
0.0024706 0.000853234 0.0
0.00189354 0.00117907 0.0
0.00118829 0.00150607 0.0
0.000352865 0.00183477 0.0
-0.000614881 0.00216637 0.0
-0.0017174 0.00250249 0.0
-0.00295753 0.002845 0.0
-0.00433849 0.00319577 0.0
-0.00586383 0.00355655 0.0
-0.00753735 0.00392876 0.0
-0.00936292 0.00431342 0.0
-0.0113443 0.00471104 0.0
-0.0134851 0.00512157 0.0
-0.0157882 0.00554434 0.0
-0.018256 0.00597811 0.0
-0.0208898 0.00642102 0.0
-0.0236898 0.00687065 0.0
-0.0266549 0.00732406 0.0
-0.0297826 0.0077778 0.0
-0.0330687 0.00822798 0.0
-0.0365072 0.0086703 0.0
-0.0400903 0.00910011 0.0
-0.0438083 0.00951245 0.0
-0.0476496 0.00990213 0.0
-0.0516006 0.0102638 0.0
-0.0556458 0.0105919 0.0
-0.0597678 0.010881 0.0
-0.0639475 0.0111255 0.0
-0.0681642 0.0113202 0.0
-0.0723956 0.0114599 0.0
-0.0766184 0.0115396 0.0
-0.080808 0.0115549 0.0
-0.0849391 0.0115017 0.0
-0.0889856 0.0113765 0.0
-0.0929215 0.0111764 0.0
-0.0967202 0.0108989 0.0
-0.100356 0.0105423 0.0
-0.103802 0.0101059 0.0
-0.107035 0.0095894 0.0
-0.110029 0.00899335 0.0
-0.112762 0.00831915 0.0
-0.115213 0.00756895 0.0
-0.11736 0.00674571 0.0
-0.119186 0.00585312 0.0
-0.120674 0.00489566 0.0
-0.121809 0.00387854 0.0
-0.122579 0.0028077 0.0
-0.122973 0.00168972 0.0
-0.122983 0.000531863 0.0
-0.122603 -0.000658021 0.0
-0.12183 -0.00187152 0.0
-0.120662 -0.0030997 0.0
-0.119101 -0.0043332 0.0
-0.117152 -0.00556226 0.0
-0.11482 -0.0067768 0.0
-0.112115 -0.00796653 0.0
-0.109048 -0.00912102 0.0
-0.105634 -0.0102298 0.0
-0.101888 -0.0112824 0.0
-0.0978312 -0.0122687 0.0
-0.0934839 -0.0131788 0.0
-0.0888705 -0.0140032 0.0
-0.084017 -0.0147332 0.0
-0.0789516 -0.0153608 0.0
-0.0737045 -0.0158787 0.0
-0.0683077 -0.0162809 0.0
-0.0627947 -0.0165626 0.0
-0.0572 -0.0167201 0.0
-0.0515595 -0.0167513 0.0
-0.0459093 -0.0166557 0.0
-0.0402863 -0.0164343 0.0
-0.0347268 -0.0160897 0.0
-0.029267 -0.0156264 0.0
-0.0239422 -0.0150502 0.0
-0.0187861 -0.0143687 0.0
-0.0138311 -0.013591 0.0
-0.00910713 -0.0127273 0.0
-0.00464178 -0.0117892 0.0
-0.000459731 -0.0107892 0.0
0.00341753 -0.00974035 0.0
0.006972 -0.0086564 0.0
0.0101894 -0.00755119 0.0
0.0130592 -0.00643848 0.0
0.015575 -0.00533171 0.0
0.0177342 -0.00424367 0.0
0.0195384 -0.00318629 0.0
0.0209926 -0.00217044 0.0
0.0221057 -0.00120568 0.0
0.0228899 -0.000300141 0.0
0.0233604 0.000539559 0.0
0.0235348 0.0013084 0.0
0.0234333 0.00200297 0.0
0.0230775 0.00262136 0.0
0.0224906 0.00316314 0.0
0.0216966 0.00362911 0.0
0.0207199 0.00402113 0.0
0.0195852 0.00434182 0.0
0.0183169 0.00459422 0.0
0.0169392 0.00478137 0.0
0.0154759 0.00490593 0.0
0.0139504 0.00496965 0.0
0.012386 0.00497293 0.0
0.0108058 0.00491441 0.0
0.00923349 0.0047906 0.0
0.00769356 0.0045958 0.0
0.00621162 0.00432229 0.0
0.00481477 0.00396111 0.0
0.00353184 0.00350364 0.0
0.00239348 0.00294437 0.0
0.00143241 0.00228539 0.0
0.000684175 0.00154295 0.0
0.000189506 0.000756562 0.0
0 0 0.0
0 0 0.0
0.00011562 -0.000728078 0.0
0.000387866 -0.00129417 0.0
0.000759543 -0.00169918 0.0
0.00118517 -0.00195083 0.0
0.00162728 -0.00206217 0.0
0.00205428 -0.00204959 0.0
0.00243929 -0.0019309 0.0
0.00275957 -0.00172391 0.0
0.00299604 -0.0014455 0.0
0.00313294 -0.001111 0.0
0.00315746 -0.000733838 0.0
0.00305936 -0.000325404 0.0
0.00283055 0.00010503 0.0
0.0024647 0.000550248 0.0
0.00195686 0.00100499 0.0
0.001303 0.00146578 0.0
0.000499766 0.00193076 0.0
-0.000455922 0.00239941 0.0
-0.00156705 0.00287231 0.0
-0.00283674 0.00335087 0.0
-0.00426831 0.00383702 0.0
-0.00586539 0.00433297 0.0
-0.00763185 0.00484088 0.0
-0.00957174 0.00536272 0.0
-0.0116891 0.00589999 0.0
-0.013988 0.0064536 0.0
-0.0164718 0.00702374 0.0
-0.0191437 0.00760983 0.0
-0.0220058 0.00821044 0.0
-0.0250591 0.00882332 0.0
-0.0283034 0.00944542 0.0
-0.0317371 0.0100729 0.0
-0.0353566 0.0107012 0.0
-0.0391566 0.0113252 0.0
-0.0431298 0.0119391 0.0
-0.0472669 0.0125365 0.0
-0.051556 0.0131108 0.0
-0.0559836 0.013655 0.0
-0.0605336 0.0141618 0.0
-0.065188 0.0146238 0.0
-0.0699267 0.0150335 0.0
-0.0747278 0.0153836 0.0
-0.0795676 0.015667 0.0
-0.084421 0.0158767 0.0
-0.0892618 0.0160063 0.0
-0.0940626 0.01605 0.0
-0.0987954 0.0160023 0.0
-0.103432 0.0158588 0.0
-0.107943 0.0156156 0.0
-0.112301 0.0152698 0.0
-0.116478 0.0148194 0.0
-0.120446 0.0142632 0.0
-0.124179 0.0136011 0.0
-0.127652 0.0128341 0.0
-0.130842 0.0119639 0.0
-0.133726 0.0109933 0.0
-0.136283 0.00992622 0.0
-0.138495 0.00876731 0.0
-0.140346 0.00752218 0.0
-0.141819 0.00619734 0.0
-0.142903 0.00480011 0.0
-0.143588 0.00333859 0.0
-0.143864 0.00182164 0.0
-0.143726 0.000258817 0.0
-0.143169 -0.00133969 0.0
-0.142192 -0.00296308 0.0
-0.140796 -0.00460003 0.0
-0.138982 -0.00623873 0.0
-0.136758 -0.00786698 0.0
-0.134129 -0.00947226 0.0
-0.131106 -0.0110418 0.0
-0.1277 -0.0125627 0.0
-0.123927 -0.014022 0.0
-0.119803 -0.015407 0.0
-0.115348 -0.0167049 0.0
-0.110582 -0.0179037 0.0
-0.105531 -0.0189916 0.0