# vtk DataFile Version 3.0
Lid-Driven Cavity Flow
ASCII
DATASET STRUCTURED_GRID
DIMENSIONS 129 129 1
POINTS 16641 double
0 0 0.0
0.0078125 0 0.0
0.015625 0 0.0
0.0234375 0 0.0
0.03125 0 0.0
0.0390625 0 0.0
0.046875 0 0.0
0.0546875 0 0.0
0.0625 0 0.0
0.0703125 0 0.0
0.078125 0 0.0
0.0859375 0 0.0
0.09375 0 0.0
0.101562 0 0.0
0.109375 0 0.0
0.117188 0 0.0
0.125 0 0.0
0.132812 0 0.0
0.140625 0 0.0
0.148438 0 0.0
0.15625 0 0.0
0.164062 0 0.0
0.171875 0 0.0
0.179688 0 0.0
0.1875 0 0.0
0.195312 0 0.0
0.203125 0 0.0
0.210938 0 0.0
0.21875 0 0.0
0.226562 0 0.0
0.234375 0 0.0
0.242188 0 0.0
0.25 0 0.0
0.257812 0 0.0
0.265625 0 0.0
0.273438 0 0.0
0.28125 0 0.0
0.289062 0 0.0
0.296875 0 0.0
0.304688 0 0.0
0.3125 0 0.0
0.320312 0 0.0
0.328125 0 0.0
0.335938 0 0.0
0.34375 0 0.0
0.351562 0 0.0
0.359375 0 0.0
0.367188 0 0.0
0.375 0 0.0
0.382812 0 0.0
0.390625 0 0.0
0.398438 0 0.0
0.40625 0 0.0
0.414062 0 0.0
0.421875 0 0.0
0.429688 0 0.0
0.4375 0 0.0
0.445312 0 0.0
0.453125 0 0.0
0.460938 0 0.0
0.46875 0 0.0
0.476562 0 0.0
0.484375 0 0.0
0.492188 0 0.0
0.5 0 0.0
0.507812 0 0.0
0.515625 0 0.0
0.523438 0 0.0
0.53125 0 0.0
0.539062 0 0.0
0.546875 0 0.0
0.554688 0 0.0
0.5625 0 0.0
0.570312 0 0.0
0.578125 0 0.0
0.585938 0 0.0
0.59375 0 0.0
0.601562 0 0.0
0.609375 0 0.0
0.617188 0 0.0
0.625 0 0.0
0.632812 0 0.0
0.640625 0 0.0
0.648438 0 0.0
0.65625 0 0.0
0.664062 0 0.0
0.671875 0 0.0
0.679688 0 0.0
0.6875 0 0.0
0.695312 0 0.0
0.703125 0 0.0
0.710938 0 0.0
0.71875 0 0.0
0.726562 0 0.0
0.734375 0 0.0
0.742188 0 0.0
0.75 0 0.0
0.757812 0 0.0
0.765625 0 0.0
0.773438 0 0.0
0.78125 0 0.0
0.789062 0 0.0
0.796875 0 0.0
0.804688 0 0.0
0.8125 0 0.0
0.820312 0 0.0
0.828125 0 0.0
0.835938 0 0.0
0.84375 0 0.0
0.851562 0 0.0
0.859375 0 0.0
0.867188 0 0.0
0.875 0 0.0
0.882812 0 0.0
0.890625 0 0.0
0.898438 0 0.0
0.90625 0 0.0
0.914062 0 0.0
0.921875 0 0.0
0.929688 0 0.0
0.9375 0 0.0
0.945312 0 0.0
0.953125 0 0.0
0.960938 0 0.0
0.96875 0 0.0
0.976562 0 0.0
0.984375 0 0.0
0.992188 0 0.0
1 0 0.0
0 0.0078125 0.0
0.0078125 0.0078125 0.0
0.015625 0.0078125 0.0
0.0234375 0.0078125 0.0
0.03125 0.0078125 0.0
0.0390625 0.0078125 0.0
0.046875 0.0078125 0.0
0.0546875 0.0078125 0.0
0.0625 0.0078125 0.0
0.0703125 0.0078125 0.0
0.078125 0.0078125 0.0
0.0859375 0.0078125 0.0
0.09375 0.0078125 0.0
0.101562 0.0078125 0.0
0.109375 0.0078125 0.0
0.117188 0.0078125 0.0
0.125 0.0078125 0.0
0.132812 0.0078125 0.0
0.140625 0.0078125 0.0
0.148438 0.0078125 0.0
0.15625 0.0078125 0.0
0.164062 0.0078125 0.0
0.171875 0.0078125 0.0
0.179688 0.0078125 0.0
0.1875 0.0078125 0.0
0.195312 0.0078125 0.0
0.203125 0.0078125 0.0
0.210938 0.0078125 0.0
0.21875 0.0078125 0.0
0.226562 0.0078125 0.0
0.234375 0.0078125 0.0
0.242188 0.0078125 0.0
0.25 0.0078125 0.0
0.257812 0.0078125 0.0
0.265625 0.0078125 0.0
0.273438 0.0078125 0.0
0.28125 0.0078125 0.0
0.289062 0.0078125 0.0
0.296875 0.0078125 0.0
0.304688 0.0078125 0.0
0.3125 0.0078125 0.0
0.320312 0.0078125 0.0
0.328125 0.0078125 0.0
0.335938 0.0078125 0.0
0.34375 0.0078125 0.0
0.351562 0.0078125 0.0
0.359375 0.0078125 0.0
0.367188 0.0078125 0.0
0.375 0.0078125 0.0
0.382812 0.0078125 0.0
0.390625 0.0078125 0.0
0.398438 0.0078125 0.0
0.40625 0.0078125 0.0
0.414062 0.0078125 0.0
0.421875 0.0078125 0.0
0.429688 0.0078125 0.0
0.4375 0.0078125 0.0
0.445312 0.0078125 0.0
0.453125 0.0078125 0.0
0.460938 0.0078125 0.0
0.46875 0.0078125 0.0
0.476562 0.0078125 0.0
0.484375 0.0078125 0.0
0.492188 0.0078125 0.0
0.5 0.0078125 0.0
0.507812 0.0078125 0.0
0.515625 0.0078125 0.0
0.523438 0.0078125 0.0
0.53125 0.0078125 0.0
0.539062 0.0078125 0.0
0.546875 0.0078125 0.0
0.554688 0.0078125 0.0
0.5625 0.0078125 0.0
0.570312 0.0078125 0.0
0.578125 0.0078125 0.0
0.585938 0.0078125 0.0
0.59375 0.0078125 0.0
0.601562 0.0078125 0.0
0.609375 0.0078125 0.0
0.617188 0.0078125 0.0
0.625 0.0078125 0.0
0.632812 0.0078125 0.0
0.640625 0.0078125 0.0
0.648438 0.0078125 0.0
0.65625 0.0078125 0.0
0.664062 0.0078125 0.0
0.671875 0.0078125 0.0
0.679688 0.0078125 0.0
0.6875 0.0078125 0.0
0.695312 0.0078125 0.0
0.703125 0.0078125 0.0
0.710938 0.0078125 0.0
0.71875 0.0078125 0.0
0.726562 0.0078125 0.0
0.734375 0.0078125 0.0
0.742188 0.0078125 0.0
0.75 0.0078125 0.0
0.757812 0.0078125 0.0
0.765625 0.0078125 0.0
0.773438 0.0078125 0.0
0.78125 0.0078125 0.0
0.789062 0.0078125 0.0
0.796875 0.0078125 0.0
0.804688 0.0078125 0.0
0.8125 0.0078125 0.0
0.820312 0.0078125 0.0
0.828125 0.0078125 0.0
0.835938 0.0078125 0.0
0.84375 0.0078125 0.0
0.851562 0.0078125 0.0
0.859375 0.0078125 0.0
0.867188 0.0078125 0.0
0.875 0.0078125 0.0
0.882812 0.0078125 0.0
0.890625 0.0078125 0.0
0.898438 0.0078125 0.0
0.90625 0.0078125 0.0
0.914062 0.0078125 0.0
0.921875 0.0078125 0.0
0.929688 0.0078125 0.0
0.9375 0.0078125 0.0
0.945312 0.0078125 0.0
0.953125 0.0078125 0.0
0.960938 0.0078125 0.0
0.96875 0.0078125 0.0
0.976562 0.0078125 0.0
0.984375 0.0078125 0.0
0.992188 0.0078125 0.0
1 0.0078125 0.0
0 0.015625 0.0
0.0078125 0.015625 0.0
0.015625 0.015625 0.0
0.0234375 0.015625 0.0
0.03125 0.015625 0.0
0.0390625 0.015625 0.0
0.046875 0.015625 0.0
0.0546875 0.015625 0.0
0.0625 0.015625 0.0
0.0703125 0.015625 0.0
0.078125 0.015625 0.0
0.0859375 0.015625 0.0
0.09375 0.015625 0.0
0.101562 0.015625 0.0
0.109375 0.015625 0.0
0.117188 0.015625 0.0
0.125 0.015625 0.0
0.132812 0.015625 0.0
0.140625 0.015625 0.0
0.148438 0.015625 0.0
0.15625 0.015625 0.0
0.164062 0.015625 0.0
0.171875 0.015625 0.0
0.179688 0.015625 0.0
0.1875 0.015625 0.0
0.195312 0.015625 0.0
0.203125 0.015625 0.0
0.210938 0.015625 0.0
0.21875 0.015625 0.0
0.226562 0.015625 0.0
0.234375 0.015625 0.0
0.242188 0.015625 0.0
0.25 0.015625 0.0
0.257812 0.015625 0.0
0.265625 0.015625 0.0
0.273438 0.015625 0.0
0.28125 0.015625 0.0
0.289062 0.015625 0.0
0.296875 0.015625 0.0
0.304688 0.015625 0.0
0.3125 0.015625 0.0
0.320312 0.015625 0.0
0.328125 0.015625 0.0
0.335938 0.015625 0.0
0.34375 0.015625 0.0
0.351562 0.015625 0.0
0.359375 0.015625 0.0
0.367188 0.015625 0.0
0.375 0.015625 0.0
0.382812 0.015625 0.0
0.390625 0.015625 0.0
0.398438 0.015625 0.0
0.40625 0.015625 0.0
0.414062 0.015625 0.0
0.421875 0.015625 0.0
0.429688 0.015625 0.0
0.4375 0.015625 0.0
0.445312 0.015625 0.0
0.453125 0.015625 0.0
0.460938 0.015625 0.0
0.46875 0.015625 0.0
0.476562 0.015625 0.0
0.484375 0.015625 0.0
0.492188 0.015625 0.0
0.5 0.015625 0.0
0.507812 0.015625 0.0
0.515625 0.015625 0.0
0.523438 0.015625 0.0
0.53125 0.015625 0.0
0.539062 0.015625 0.0
0.546875 0.015625 0.0
0.554688 0.015625 0.0
0.5625 0.015625 0.0
0.570312 0.015625 0.0
0.578125 0.015625 0.0
0.585938 0.015625 0.0
0.59375 0.015625 0.0
0.601562 0.015625 0.0
0.609375 0.015625 0.0
0.617188 0.015625 0.0
0.625 0.015625 0.0
0.632812 0.015625 0.0
0.640625 0.015625 0.0
0.648438 0.015625 0.0
0.65625 0.015625 0.0
0.664062 0.015625 0.0
0.671875 0.015625 0.0
0.679688 0.015625 0.0
0.6875 0.015625 0.0
0.695312 0.015625 0.0
0.703125 0.015625 0.0
0.710938 0.015625 0.0
0.71875 0.015625 0.0
0.726562 0.015625 0.0
0.734375 0.015625 0.0
0.742188 0.015625 0.0
0.75 0.015625 0.0
0.757812 0.015625 0.0
0.765625 0.015625 0.0
0.773438 0.015625 0.0
0.78125 0.015625 0.0
0.789062 0.015625 0.0
0.796875 0.015625 0.0
0.804688 0.015625 0.0
0.8125 0.015625 0.0
0.820312 0.015625 0.0
0.828125 0.015625 0.0
0.835938 0.015625 0.0
0.84375 0.015625 0.0
0.851562 0.015625 0.0
0.859375 0.015625 0.0
0.867188 0.015625 0.0
0.875 0.015625 0.0
0.882812 0.015625 0.0
0.890625 0.015625 0.0
0.898438 0.015625 0.0
0.90625 0.015625 0.0
0.914062 0.015625 0.0
0.921875 0.015625 0.0
0.929688 0.015625 0.0
0.9375 0.015625 0.0
0.945312 0.015625 0.0
0.953125 0.015625 0.0
0.960938 0.015625 0.0
0.96875 0.015625 0.0
0.976562 0.015625 0.0
0.984375 0.015625 0.0
0.992188 0.015625 0.0
1 0.015625 0.0
0 0.0234375 0.0
0.0078125 0.0234375 0.0
0.015625 0.0234375 0.0
0.0234375 0.0234375 0.0
0.03125 0.0234375 0.0
0.0390625 0.0234375 0.0
0.046875 0.0234375 0.0
0.0546875 0.0234375 0.0
0.0625 0.0234375 0.0
0.0703125 0.0234375 0.0
0.078125 0.0234375 0.0
0.0859375 0.0234375 0.0
0.09375 0.0234375 0.0
0.101562 0.0234375 0.0
0.109375 0.0234375 0.0
0.117188 0.0234375 0.0
0.125 0.0234375 0.0
0.132812 0.0234375 0.0
0.140625 0.0234375 0.0
0.148438 0.0234375 0.0
0.15625 0.0234375 0.0
0.164062 0.0234375 0.0
0.171875 0.0234375 0.0
0.179688 0.0234375 0.0
0.1875 0.0234375 0.0
0.195312 0.0234375 0.0
0.203125 0.0234375 0.0
0.210938 0.0234375 0.0
0.21875 0.0234375 0.0
0.226562 0.0234375 0.0
0.234375 0.0234375 0.0
0.242188 0.0234375 0.0
0.25 0.0234375 0.0
0.257812 0.0234375 0.0
0.265625 0.0234375 0.0
0.273438 0.0234375 0.0
0.28125 0.0234375 0.0
0.289062 0.0234375 0.0
0.296875 0.0234375 0.0
0.304688 0.0234375 0.0
0.3125 0.0234375 0.0
0.320312 0.0234375 0.0
0.328125 0.0234375 0.0
0.335938 0.0234375 0.0
0.34375 0.0234375 0.0
0.351562 0.0234375 0.0
0.359375 0.0234375 0.0
0.367188 0.0234375 0.0
0.375 0.0234375 0.0
0.382812 0.0234375 0.0
0.390625 0.0234375 0.0
0.398438 0.0234375 0.0
0.40625 0.0234375 0.0
0.414062 0.0234375 0.0
0.421875 0.0234375 0.0
0.429688 0.0234375 0.0
0.4375 0.0234375 0.0
0.445312 0.0234375 0.0
0.453125 0.0234375 0.0
0.460938 0.0234375 0.0
0.46875 0.0234375 0.0
0.476562 0.0234375 0.0
0.484375 0.0234375 0.0
0.492188 0.0234375 0.0
0.5 0.0234375 0.0
0.507812 0.0234375 0.0
0.515625 0.0234375 0.0
0.523438 0.0234375 0.0
0.53125 0.0234375 0.0
0.539062 0.0234375 0.0
0.546875 0.0234375 0.0
0.554688 0.0234375 0.0
0.5625 0.0234375 0.0
0.570312 0.0234375 0.0
0.578125 0.0234375 0.0
0.585938 0.0234375 0.0
0.59375 0.0234375 0.0
0.601562 0.0234375 0.0
0.609375 0.0234375 0.0
0.617188 0.0234375 0.0
0.625 0.0234375 0.0
0.632812 0.0234375 0.0
0.640625 0.0234375 0.0
0.648438 0.0234375 0.0
0.65625 0.0234375 0.0
0.664062 0.0234375 0.0
0.671875 0.0234375 0.0
0.679688 0.0234375 0.0
0.6875 0.0234375 0.0
0.695312 0.0234375 0.0
0.703125 0.0234375 0.0
0.710938 0.0234375 0.0
0.71875 0.0234375 0.0
0.726562 0.0234375 0.0
0.734375 0.0234375 0.0
0.742188 0.0234375 0.0
0.75 0.0234375 0.0
0.757812 0.0234375 0.0
0.765625 0.0234375 0.0
0.773438 0.0234375 0.0
0.78125 0.0234375 0.0
0.789062 0.0234375 0.0
0.796875 0.0234375 0.0
[...]
POINT_DATA 16641
VECTORS velocity double
0 0 0.0
0 0 0.0
0 0 0.0
0 0 0.0
0 0 0.0
0 0 0.0
0 0 0.0
0 0 0.0
0 0 0.0
0 0 0.0
0 0 0.0
0 0 0.0
0 0 0.0
0 0 0.0
0 0 0.0
0 0 0.0
0 0 0.0
0 0 0.0
0 0 0.0
0 0 0.0
0 0 0.0
0 0 0.0
0 0 0.0
0 0 0.0
0 0 0.0
0 0 0.0
0 0 0.0
0 0 0.0
0 0 0.0
0 0 0.0
0 0 0.0
0 0 0.0
0 0 0.0
0 0 0.0
0 0 0.0
0 0 0.0
0 0 0.0
0 0 0.0
0 0 0.0
0 0 0.0
0 0 0.0
0 0 0.0
0 0 0.0
0 0 0.0
0 0 0.0
0 0 0.0
0 0 0.0
0 0 0.0
0 0 0.0
0 0 0.0
0 0 0.0
0 0 0.0
0 0 0.0
0 0 0.0
0 0 0.0
0 0 0.0
0 0 0.0
0 0 0.0
0 0 0.0
0 0 0.0
0 0 0.0
0 0 0.0
0 0 0.0
0 0 0.0
0 0 0.0
0 0 0.0
0 0 0.0
0 0 0.0
0 0 0.0
0 0 0.0
0 0 0.0
0 0 0.0
0 0 0.0
0 0 0.0
0 0 0.0
0 0 0.0
0 0 0.0
0 0 0.0
0 0 0.0
0 0 0.0
0 0 0.0
0 0 0.0
0 0 0.0
0 0 0.0
0 0 0.0
0 0 0.0
0 0 0.0
0 0 0.0
0 0 0.0
0 0 0.0
0 0 0.0
0 0 0.0
0 0 0.0
0 0 0.0
0 0 0.0
0 0 0.0
0 0 0.0
0 0 0.0
0 0 0.0
0 0 0.0
0 0 0.0
0 0 0.0
0 0 0.0
0 0 0.0
0 0 0.0
0 0 0.0
0 0 0.0
0 0 0.0
0 0 0.0
0 0 0.0
0 0 0.0
0 0 0.0
0 0 0.0
0 0 0.0
0 0 0.0
0 0 0.0
0 0 0.0
0 0 0.0
0 0 0.0
0 0 0.0
0 0 0.0
0 0 0.0
0 0 0.0
0 0 0.0
0 0 0.0
0 0 0.0
0 0 0.0
0 0 0.0
0 0 0.0
0 0 0.0
2.35528e-06 -2.33702e-06 0.0
-4.91206e-06 4.07623e-06 0.0
-2.8818e-05 1.42568e-05 0.0
-7.21444e-05 2.54759e-05 0.0
-0.00013534 3.64577e-05 0.0
-0.000217622 4.66514e-05 0.0
-0.000317596 5.58439e-05 0.0
-0.000433588 6.39787e-05 0.0
-0.000563831 7.10723e-05 0.0
-0.00070657 7.7176e-05 0.0
-0.000860115 8.23565e-05 0.0
-0.00102287 8.66871e-05 0.0
-0.00119336 9.02425e-05 0.0
-0.00137022 9.30961e-05 0.0
-0.00155221 9.53188e-05 0.0
-0.0017382 9.6978e-05 0.0
-0.00192718 9.81371e-05 0.0
-0.00211826 9.88552e-05 0.0
-0.00231063 9.91871e-05 0.0
-0.00250359 9.91832e-05 0.0
-0.00269653 9.88895e-05 0.0
-0.00288891 9.83478e-05 0.0
-0.00308026 9.75955e-05 0.0
-0.00327021 9.66661e-05 0.0
-0.0034584 9.55889e-05 0.0
-0.00364457 9.43896e-05 0.0
-0.00382846 9.30902e-05 0.0
-0.00400988 9.17093e-05 0.0
-0.00418867 9.02621e-05 0.0
-0.00436468 8.8761e-05 0.0
-0.00453779 8.72152e-05 0.0
-0.00470791 8.56317e-05 0.0
-0.00487495 8.40148e-05 0.0
-0.00503881 8.23665e-05 0.0
-0.00519943 8.06871e-05 0.0
-0.00535671 7.8975e-05 0.0
-0.00551059 7.7227e-05 0.0
-0.00566096 7.54386e-05 0.0
-0.00580774 7.36043e-05 0.0
-0.00595081 7.17173e-05 0.0
-0.00609005 6.97706e-05 0.0
-0.00622533 6.77561e-05 0.0
-0.0063565 6.56658e-05 0.0
-0.0064834 6.34911e-05 0.0
-0.00660585 6.12236e-05 0.0
-0.00672367 5.8855e-05 0.0
-0.00683663 5.63772e-05 0.0
-0.00694453 5.37826e-05 0.0
-0.00704712 5.1064e-05 0.0
-0.00714417 4.8215e-05 0.0
-0.00723542 4.52297e-05 0.0
-0.0073206 4.21034e-05 0.0
-0.00739943 3.88321e-05 0.0
-0.00747164 3.54129e-05 0.0
-0.00753695 3.18441e-05 0.0
-0.00759507 2.81249e-05 0.0
-0.00764573 2.4256e-05 0.0
-0.00768863 2.02393e-05 0.0
-0.00772351 1.60778e-05 0.0
-0.0077501 1.17762e-05 0.0
-0.00776814 7.34016e-06 0.0
-0.00777739 2.77702e-06 0.0
-0.00777762 -1.90469e-06 0.0
-0.00776863 -6.69505e-06 0.0
-0.00775022 -1.15828e-05 0.0
-0.00772224 -1.65553e-05 0.0
-0.00768453 -2.15989e-05 0.0
-0.00763699 -2.66984e-05 0.0
-0.00757954 -3.18376e-05 0.0
-0.00751212 -3.69992e-05 0.0
-0.00743472 -4.2165e-05 0.0
-0.00734736 -4.73156e-05 0.0
-0.0072501 -5.2431e-05 0.0
-0.00714303 -5.74906e-05 0.0
-0.00702628 -6.24728e-05 0.0
-0.00690004 -6.73559e-05 0.0
-0.00676452 -7.21177e-05 0.0
-0.00661999 -7.67358e-05 0.0
-0.00646674 -8.1188e-05 0.0
-0.00630512 -8.54518e-05 0.0
-0.00613552 -8.95052e-05 0.0
-0.00595836 -9.33268e-05 0.0
-0.00577412 -9.68954e-05 0.0
-0.00558329 -0.000100191 0.0
-0.00538642 -0.000103194 0.0
-0.0051841 -0.000105886 0.0
-0.00497693 -0.00010825 0.0
-0.00476555 -0.000110271 0.0
-0.00455064 -0.000111934 0.0
-0.00433289 -0.000113227 0.0
-0.00411302 -0.000114139 0.0
-0.00389177 -0.000114661 0.0
-0.00366987 -0.000114786 0.0
-0.00344811 -0.000114509 0.0
-0.00322724 -0.000113827 0.0
-0.00300804 -0.00011274 0.0
-0.00279127 -0.000111249 0.0
-0.00257771 -0.000109357 0.0
-0.00236812 -0.000107071 0.0
-0.00216322 -0.000104397 0.0
-0.00196376 -0.000101347 0.0
-0.00177043 -9.79331e-05 0.0
-0.00158392 -9.41684e-05 0.0
-0.00140488 -9.00696e-05 0.0
-0.00123391 -8.56549e-05 0.0
-0.00107161 -8.09443e-05 0.0
-0.000918515 -7.59598e-05 0.0
-0.000775113 -7.07252e-05 0.0
-0.000641855 -6.52662e-05 0.0
-0.000519134 -5.96105e-05 0.0
-0.000407288 -5.37879e-05 0.0
-0.000306594 -4.7831e-05 0.0
-0.000217261 -4.17749e-05 0.0
-0.000139426 -3.56587e-05 0.0
-7.31446e-05 -2.95259e-05 0.0
-1.8379e-05 -2.34263e-05 0.0
2.5012e-05 -1.7418e-05 0.0
5.72934e-05 -1.15707e-05 0.0
7.88771e-05 -5.97048e-06 0.0
9.03552e-05 -7.27243e-07 0.0
9.25451e-05 4.01438e-06 0.0
8.65523e-05 8.05788e-06 0.0
7.38548e-05 1.11293e-05 0.0
5.64138e-05 1.28432e-05 0.0
3.68023e-05 1.26753e-05 0.0
1.83024e-05 1.00328e-05 0.0
4.80084e-06 4.81283e-06 0.0
0 0 0.0
0 0 0.0
-4.01509e-06 4.91206e-06 0.0
-3.11114e-05 3.11733e-05 0.0
-8.93059e-05 6.72324e-05 0.0
-0.000182207 0.000106522 0.0
-0.000310551 0.000145478 0.0
-0.000473283 0.000182256 0.0
-0.000668295 0.000215965 0.0
-0.000892908 0.000246235 0.0
-0.00114418 0.000272983 0.0
-0.00141909 0.000296285 0.0
-0.00171468 0.000316304 0.0
-0.0020281 0.000333248 0.0
-0.00235665 0.000347349 0.0
-0.00269783 0.000358846 0.0
-0.00304934 0.000367976 0.0
-0.00340906 0.000374974 0.0
-0.00377509 0.00038006 0.0
-0.00414569 0.000383447 0.0
-0.00451933 0.000385332 0.0
-0.00489464 0.000385898 0.0
-0.00527042 0.000385314 0.0
-0.0056456 0.000383736 0.0
-0.00601926 0.000381303 0.0
-0.0063906 0.00037814 0.0
-0.00675894 0.000374358 0.0
-0.00712368 0.000370054 0.0
-0.00748431 0.000365314 0.0
-0.00784041 0.000360208 0.0
-0.00819161 0.000354796 0.0
-0.00853759 0.000349126 0.0
-0.00887807 0.000343236 0.0
-0.00921283 0.000337154 0.0
-0.00954163 0.000330899 0.0
-0.00986429 0.000324481 0.0
-0.0101806 0.000317904 0.0
-0.0104904 0.000311163 0.0
-0.0107935 0.00030425 0.0
-0.0110896 0.00029715 0.0
-0.0113786 0.000289844 0.0
-0.0116602 0.000282309 0.0
-0.0119341 0.000274521 0.0
-0.0122002 0.000266452 0.0
-0.012458 0.000258072 0.0
-0.0127073 0.000249353 0.0
-0.0129477 0.000240265 0.0
-0.0131788 0.000230778 0.0
-0.0134002 0.000220863 0.0
-0.0136115 0.000210494 0.0
-0.0138123 0.000199645 0.0
-0.0140019 0.000188294 0.0
-0.0141801 0.000176421 0.0
-0.0143462 0.00016401 0.0
-0.0144997 0.000151047 0.0
-0.0146401 0.000137522 0.0
-0.0147669 0.000123432 0.0
-0.0148795 0.000108775 0.0
-0.0149775 9.35555e-05 0.0
-0.0150602 7.77813e-05 0.0
-0.0151271 6.14662e-05 0.0
-0.0151778 4.46288e-05 0.0
-0.0152118 2.72925e-05 0.0
-0.0152286 9.48599e-06 0.0
-0.0152279 -8.75702e-06 0.0
-0.0152092 -2.73978e-05 0.0
-0.0151722 -4.63926e-05 0.0
-0.0151165 -6.56929e-05 0.0
-0.015042 -8.52453e-05 0.0
-0.0149485 -0.000104992 0.0
-0.0148357 -0.000124871 0.0
-0.0147037 -0.000144817 0.0
-0.0145524 -0.000164759 0.0
-0.0143819 -0.000184624 0.0
-0.0141923 -0.000204336 0.0
-0.0139838 -0.000223817 0.0
-0.0137566 -0.000242985 0.0
-0.0135112 -0.000261758 0.0
-0.013248 -0.000280053 0.0
-0.0129674 -0.000297784 0.0
-0.0126701 -0.000314868 0.0
-0.0123567 -0.000331221 0.0
-0.012028 -0.00034676 0.0
-0.0116848 -0.000361403 0.0
-0.0113281 -0.000375073 0.0
-0.0109587 -0.000387692 0.0
-0.0105777 -0.00039919 0.0
-0.0101863 -0.000409496 0.0
-0.00978563 -0.000418548 0.0
-0.00937686 -0.000426287 0.0
-0.00896132 -0.00043266 0.0
-0.00854032 -0.000437619 0.0
-0.00811524 -0.000441126 0.0
-0.00768748 -0.000443147 0.0
-0.00725847 -0.000443656 0.0
-0.00682966 -0.000442634 0.0
-0.00640251 -0.000440071 0.0
-0.00597849 -0.000435966 0.0
-0.00555907 -0.000430324 0.0
-0.00514571 -0.000423158 0.0
-0.00473984 -0.000414492 0.0
-0.00434288 -0.000404356 0.0
-0.00395621 -0.000392789 0.0
-0.00358117 -0.000379838 0.0
-0.00321904 -0.000365557 0.0
-0.00287107 -0.000350008 0.0
-0.00253841 -0.000333263 0.0
-0.00222218 -0.000315399 0.0
-0.00192339 -0.0002965 0.0
-0.00164297 -0.00027666 0.0
-0.00138176 -0.00025598 0.0
-0.0011405 -0.000234567 0.0
-0.000919811 -0.00021254 0.0
-0.000720207 -0.000190027 0.0
-0.000542061 -0.000167167 0.0
-0.000385603 -0.000144117 0.0
-0.000250906 -0.000121047 0.0
-0.000137861 -9.81566e-05 0.0
-4.6157e-05 -7.56724e-05 0.0
2.47511e-05 -5.38651e-05 0.0
7.56862e-05 -3.30618e-05 0.0
0.0001078 -1.3668e-05 0.0
0.000122642 3.80283e-06 0.0
0.000122245 1.86904e-05 0.0
0.000109236 3.01386e-05 0.0
8.69442e-05 3.70525e-05 0.0
5.95164e-05 3.81114e-05 0.0
3.19485e-05 3.20015e-05 0.0
9.98999e-06 1.83024e-05 0.0
0 0 0.0
0 0 0.0
-1.41836e-05 2.87744e-05 0.0
-6.7283e-05 8.9367e-05 0.0
-0.000165619 0.000165352 0.0
-0.000312145 0.000246721 0.0
-0.000507259 0.000327534 0.0
-0.000749543 0.000404396 0.0
-0.00103638 0.000475469 0.0
-0.0013644 0.000539863 0.0
-0.00172985 0.000597258 0.0
-0.0021288 0.000647681 0.0
-0.00255732 0.000691362 0.0
-0.00301158 0.000728654 0.0
-0.00348792 0.000759978 0.0
-0.00398289 0.000785787 0.0
-0.00449327 0.000806547 0.0
-0.00501612 0.000822722 0.0
-0.00554871 0.000834761 0.0
-0.0060886 0.000843098 0.0
-0.00663357 0.00084814 0.0
-0.00718162 0.000850272 0.0
-0.007731 0.000849847 0.0
-0.00828014 0.000847191 0.0
-0.00882767 0.000842602 0.0
-0.00937237 0.000836347 0.0
-0.0099132 0.000828663 0.0
-0.0104493 0.000819761 0.0
-0.0109797 0.000809823 0.0
-0.011504 0.000799004 0.0
-0.0120213 0.000787437 0.0
-0.0125313 0.000775226 0.0
-0.0130335 0.000762458 0.0
-0.0135274 0.000749194 0.0
-0.0140128 0.00073548 0.0
-0.0144892 0.000721342 0.0
-0.0149563 0.00070679 0.0
-0.0154138 0.000691821 0.0
-0.0158614 0.000676418 0.0
-0.0162987 0.000660554 0.0
-0.0167253 0.000644192 0.0
-0.017141 0.000627288 0.0
-0.0175453 0.00060979 0.0
-0.0179377 0.000591643 0.0
-0.0183179 0.00057279 0.0
-0.0186852 0.000553168 0.0
-0.0190393 0.000532719 0.0
-0.0193794 0.000511381 0.0
-0.019705 0.000489096 0.0
-0.0200155 0.00046581 0.0
-0.0203102 0.000441472 0.0
-0.0205885 0.000416037 0.0
-0.0208495 0.000389463 0.0
-0.0210927 0.00036172 0.0
-0.0213171 0.000332781 0.0
-0.0215222 0.00030263 0.0
-0.021707 0.000271258 0.0
-0.021871 0.000238667 0.0
-0.0220132 0.000204868 0.0
-0.022133 0.000169882 0.0
-0.0222296 0.00013374 0.0
-0.0223024 9.64856e-05 0.0
-0.0223506 5.8171e-05 0.0
-0.0223738 1.88605e-05 0.0
-0.0223711 -2.13711e-05 0.0
-0.0223423 -6.24383e-05 0.0
-0.0222867 -0.000104245 0.0
-0.0222039 -0.000146684 0.0
-0.0220937 -0.00018964 0.0
-0.0219558 -0.000232987 0.0
-0.02179 -0.000276589 0.0
-0.0215963 -0.000320303 0.0
-0.0213745 -0.000363977 0.0
-0.0211249 -0.000407454 0.0
-0.0208477 -0.000450568 0.0
-0.0205431 -0.00049315 0.0
-0.0202115 -0.000535025 0.0
-0.0198536 -0.000576016 0.0
-0.0194699 -0.000615941 0.0
-0.0190612 -0.00065462 0.0
-0.0186284 -0.000691871 0.0
-0.0181724 -0.000727515 0.0
-0.0176944 -0.000761374 0.0
-0.0171954 -0.000793273 0.0
-0.0166769 -0.000823045 0.0
-0.0161402 -0.000850525 0.0
-0.0155869 -0.00087556 0.0
-0.0150185 -0.000898003 0.0
-0.0144367 -0.000917718 0.0
-0.0138433 -0.000934579 0.0
-0.0132401 -0.000948473 0.0
-0.012629 -0.000959302 0.0
-0.012012 -0.000966978 0.0
-0.0113911 -0.000971432 0.0
-0.0107683 -0.000972609 0.0
-0.0101457 -0.00097047 0.0
-0.00952541 -0.000964994 0.0
-0.00890952 -0.000956177 0.0
-0.00830013 -0.000944031 0.0
-0.0076993 -0.000928589 0.0
-0.0071091 -0.000909899 0.0
-0.00653155 -0.000888029 0.0
-0.00596861 -0.000863063 0.0
-0.0054222 -0.000835103 0.0
-0.00489415 -0.000804268 0.0
-0.00438622 -0.000770697 0.0
-0.00390009 -0.000734541 0.0
-0.00343731 -0.000695971 0.0
-0.00299932 -0.000655175 0.0
-0.00258746 -0.000612356 0.0
-0.00220291 -0.000567737 0.0
-0.00184671 -0.000521556 0.0
-0.00151973 -0.000474077 0.0
-0.00122268 -0.000425581 0.0
-0.000956058 -0.000376379 0.0
-0.000720171 -0.000326814 0.0
-0.000515087 -0.000277269 0.0
-0.000340616 -0.000228175 0.0
-0.00019628 -0.00018003 0.0
-8.12714e-05 -0.000133414 0.0
5.59593e-06 -8.90194e-05 0.0
6.59477e-05 -4.76827e-05 0.0
0.000101922 -1.0431e-05 0.0
0.000116255 2.1464e-05 0.0
0.000112377 4.64305e-05 0.0
9.45079e-05 6.25623e-05 0.0
6.77352e-05 6.7671e-05 0.0
3.80796e-05 5.95592e-05 0.0
1.26125e-05 3.67613e-05 0.0
0 0 0.0
0 0 0.0
-2.55122e-05 7.2195e-05 0.0
-0.00010717 0.000182609 0.0
-0.0002484 0.000312094 0.0
-0.000450576 0.000448161 0.0
-0.000713184 0.000582877 0.0
-0.00103418 0.000711375 0.0
-0.00141037 0.000830822 0.0
-0.00183783 0.000939708 0.0
-0.00231216 0.00103738 0.0
-0.00282871 0.00112376 0.0
-0.00338283 0.00119908 0.0
-0.00396989 0.00126385 0.0
-0.00458546 0.00131865 0.0
-0.00522531 0.0013642 0.0
-0.00588546 0.00140121 0.0
-0.00656224 0.00143041 0.0
-0.00725223 0.00145254 0.0
-0.00795233 0.0014683 0.0
-0.00865971 0.00147835 0.0
-0.00937182 0.00148333 0.0
-0.0100864 0.00148383 0.0
-0.0108013 0.0014804 0.0
-0.0115149 0.00147353 0.0
-0.0122254 0.00146368 0.0
-0.0129315 0.00145124 0.0
-0.013632 0.00143658 0.0
-0.0143257 0.00142001 0.0
-0.0150117 0.0014018 0.0
-0.0156892 0.00138216 0.0
-0.0163574 0.0013613 0.0
-0.0170157 0.00133935 0.0
-0.0176634 0.00131644 0.0
-0.0183001 0.00129263 0.0
-0.0189253 0.00126798 0.0
-0.0195383 0.00124252 0.0
-0.0201388 0.00121625 0.0
-0.0207263 0.00118913 0.0
-0.0213003 0.00116114 0.0
-0.0218602 0.0011322 0.0
-0.0224056 0.00110227 0.0
-0.0229359 0.00107124 0.0
-0.0234505 0.00103904 0.0
-0.0239488 0.00100556 0.0
-0.02443 0.000970718 0.0
-0.0248936 0.000934407 0.0
-0.0253387 0.000896531 0.0
-0.0257646 0.000856996 0.0
-0.0261704 0.000815714 0.0
-0.0265552 0.000772603 0.0
-0.0269183 0.00072759 0.0
-0.0272586 0.000680612 0.0
-0.0275753 0.000631618 0.0
-0.0278674 0.000580569 0.0
-0.0281338 0.000527442 0.0
-0.0283738 0.000472227 0.0
-0.0285862 0.00041493 0.0
-0.0287702 0.000355575 0.0
-0.0289248 0.000294202 0.0
-0.0290491 0.000230869 0.0
-0.0291422 0.000165654 0.0
-0.0292034 9.86495e-05 0.0
-0.0292318 2.99696e-05 0.0
-0.0292267 -4.02546e-05 0.0
-0.0291876 -0.000111874 0.0
-0.0291137 -0.00018472 0.0
-0.0290046 -0.000258609 0.0
-0.02886 -0.000333339 0.0
-0.0286795 -0.000408693 0.0
-0.028463 -0.000484438 0.0
-0.0282103 -0.000560326 0.0
-0.0279215 -0.000636098 0.0
-0.0275968 -0.000711482 0.0
-0.0272364 -0.000786195 0.0
-0.0268409 -0.000859947 0.0
-0.0264107 -0.000932439 0.0
-0.0259465 -0.00100337 0.0
-0.0254493 -0.00107242 0.0
-0.0249199 -0.0011393 0.0
-0.0243595 -0.00120368 0.0
-0.0237694 -0.00126527 0.0
-0.0231509 -0.00132376 0.0
-0.0225057 -0.00137885 0.0
-0.0218353 -0.00143026 0.0
-0.0211417 -0.00147772 0.0
-0.0204266 -0.00152095 0.0
-0.0196922 -0.00155971 0.0
-0.0189407 -0.00159376 0.0
-0.0181742 -0.00162291 0.0
-0.0173951 -0.00164694 0.0
-0.0166059 -0.0016657 0.0
-0.0158089 -0.00167905 0.0
-0.0150069 -0.00168685 0.0
-0.0142024 -0.00168902 0.0
-0.013398 -0.0016855 0.0
-0.0125964 -0.00167624 0.0
-0.0118002 -0.00166125 0.0
-0.0110122 -0.00164055 0.0
-0.0102349 -0.00161418 0.0
-0.00947107 -0.00158224 0.0
-0.00872315 -0.00154485 0.0
-0.00799368 -0.00150214 0.0
-0.00728508 -0.0014543 0.0
-0.0065997 -0.00140153 0.0
-0.00593976 -0.00134407 0.0
-0.00530737 -0.00128218 0.0
-0.00470453 -0.00121616 0.0
-0.00413305 -0.00114634 0.0
-0.00359462 -0.00107307 0.0
-0.00309072 -0.000996731 0.0
-0.00262267 -0.000917748 0.0
-0.00219155 -0.000836573 0.0
-0.00179825 -0.000753702 0.0
-0.00144337 -0.000669675 0.0
-0.00112729 -0.000585088 0.0
-0.000850048 -0.000500603 0.0
-0.000611398 -0.000416963 0.0
-0.000410711 -0.000335017 0.0
-0.000246961 -0.000255741 0.0
-0.000118665 -0.000180281 0.0
-2.38296e-05 -0.000109994 0.0
4.01227e-05 -4.65044e-05 0.0
7.64249e-05 8.23484e-06 0.0
8.90457e-05 5.18856e-05 0.0
8.27693e-05 8.16946e-05 0.0
6.32799e-05 9.45398e-05 0.0
3.72881e-05 8.71242e-05 0.0
1.28228e-05 5.63819e-05 0.0
0 0 0.0
0 0 0.0
-3.6814e-05 0.000135944 0.0
-0.000147506 0.000312254 0.0
-0.000332309 0.000508758 0.0
-0.000590555 0.000711505 0.0
-0.00092041 0.000911133 0.0
-0.00131893 0.00110158 0.0
-0.00178224 0.00127913 0.0
-0.00230581 0.00144165 0.0
-0.00288466 0.00158814 0.0
-0.00351355 0.00171835 0.0
-0.0041872 0.00183254 0.0
-0.00490036 0.00193129 0.0
-0.00564795 0.00201539 0.0
-0.00642508 0.00208579 0.0
-0.00722716 0.00214348 0.0
-0.00804986 0.00218949 0.0
-0.00888917 0.00222485 0.0
-0.00974142 0.00225058 0.0
-0.0106032 0.00226763 0.0
-0.0114715 0.00227693 0.0
-0.0123436 0.00227935 0.0
-0.0132168 0.00227569 0.0
-0.0140891 0.00226668 0.0
-0.0149585 0.00225299 0.0
-0.015823 0.00223522 0.0
-0.0166813 0.00221392 0.0
-0.017532 0.00218954 0.0
-0.0183737 0.0021625 0.0
-0.0192055 0.00213314 0.0
-0.0200263 0.00210173 0.0
-0.0208353 0.00206851 0.0
-0.0216316 0.00203366 0.0
-0.0224146 0.0019973 0.0
-0.0231836 0.00195952 0.0
-0.0239378 0.00192035 0.0
-0.0246767 0.00187981 0.0
-0.0253996 0.00183787 0.0
-0.0261058 0.00179447 0.0
-0.0267947 0.00174954 0.0
-0.0274656 0.00170298 0.0
-0.0281177 0.00165467 0.0
-0.0287504 0.0016045 0.0
-0.0293628 0.00155232 0.0
-0.029954 0.00149799 0.0
-0.0305233 0.00144138 0.0
-0.0310695 0.00138235 0.0
-0.0315919 0.00132076 0.0
-0.0320894 0.00125648 0.0
-0.0325609 0.00118941 0.0
-0.0330054 0.00111944 0.0
-0.0334217 0.00104647 0.0
-0.0338087 0.000970452 0.0
-0.0341654 0.00089132 0.0
-0.0344905 0.000809049 0.0
-0.0347828 0.000723631 0.0
-0.0350414 0.000635082 0.0
-0.0352649 0.000543444 0.0
-0.0354524 0.000448784 0.0
-0.0356028 0.000351195 0.0
-0.035715 0.000250798 0.0
-0.035788 0.000147741 0.0
-0.0358211 4.21995e-05 0.0
-0.0358133 -6.56246e-05 0.0
-0.0357639 -0.000175501 0.0
-0.0356723 -0.000287174 0.0
-0.0355379 -0.000400362 0.0
-0.0353603 -0.000514756 0.0
-0.0351391 -0.000630028 0.0
-0.0348741 -0.000745823 0.0
-0.0345654 -0.000861767 0.0
-0.034213 -0.000977466 0.0
-0.033817 -0.00109251 0.0
-0.033378 -0.00120647 0.0
-0.0328964 -0.00131892 0.0
-0.0323729 -0.00142939 0.0
-0.0318085 -0.00153744 0.0
-0.0312041 -0.0016426 0.0
-0.0305609 -0.0017444 0.0
-0.0298804 -0.00184239 0.0
-0.029164 -0.00193609 0.0
-0.0284135 -0.00202506 0.0
-0.0276306 -0.00210886 0.0
-0.0268176 -0.00218705 0.0
-0.0259764 -0.00225922 0.0
-0.0251095 -0.00232497 0.0
-0.0242192 -0.00238394 0.0
-0.0233082 -0.00243577 0.0
-0.0223791 -0.00248016 0.0
-0.0214348 -0.00251681 0.0
-0.0204782 -0.00254547 0.0
-0.0195122 -0.00256592 0.0
-0.0185399 -0.00257799 0.0
-0.0175644 -0.00258155 0.0
-0.0165889 -0.00257648 0.0
-0.0156166 -0.00256275 0.0
-0.0146505 -0.00254035 0.0
-0.013694 -0.00250931 0.0
-0.0127502 -0.00246971 0.0
-0.0118221 -0.00242169 0.0
-0.0109129 -0.00236542 0.0
-0.0100255 -0.00230113 0.0
-0.00916283 -0.00222908 0.0
-0.00832768 -0.00214959 0.0
-0.00752271 -0.00206302 0.0
-0.00675042 -0.00196977 0.0
-0.00601318 -0.00187029 0.0
-0.00531317 -0.00176508 0.0
-0.00465238 -0.00165469 0.0
-0.00403259 -0.00153969 0.0
-0.00345533 -0.00142073 0.0
-0.0029219 -0.0012985 0.0
-0.00243333 -0.00117376 0.0
-0.00199035 -0.00104734 0.0
-0.00159335 -0.000920138 0.0
-0.00124242 -0.000793156 0.0
-0.000937224 -0.000667512 0.0
-0.000677033 -0.000544467 0.0
-0.000460653 -0.00042546 0.0
-0.000286382 -0.000312151 0.0
-0.000151959 -0.000206471 0.0
-5.45013e-05 -0.000110686 0.0
9.55525e-06 -2.7459e-05 0.0
4.45245e-05 4.00861e-05 0.0
5.55436e-05 8.83282e-05 0.0
4.86705e-05 0.000113152 0.0
3.10517e-05 0.000110016 0.0
1.12638e-05 7.40495e-05 0.0
0 0 0.0
0 0 0.0
-4.76094e-05 0.000219701 0.0
-0.000186692 0.000478104 0.0
-0.000414446 0.000755143 0.0
-0.000728022 0.00103626 0.0
-0.00112405 0.00131125 0.0
-0.00159847 0.00157321 0.0
-0.00214661 0.00181771 0.0
-0.00276324 0.00204212 0.0
-0.00344281 0.00224512 0.0
-0.00417952 0.0024263 0.0
-0.00496754 0.0025859 0.0
-0.00580109 0.00272459 0.0
-0.00667451 0.00284338 0.0
-0.00758238 0.00294341 0.0
-0.00851955 0.00302598 0.0
-0.00948115 0.00309243 0.0
-0.0104627 0.00314411 0.0
-0.0114599 0.00318236 0.0
-0.0124689 0.00320847 0.0
-0.0134863 0.00322367 0.0
-0.0145088 0.00322914 0.0
-0.0155335 0.00322596 0.0
-0.0165578 0.00321514 0.0
-0.0175793 0.00319759 0.0
-0.018596 0.00317413 0.0
-0.019606 0.00314551 0.0
-0.0206075 0.00311238 0.0
-0.0215992 0.00307529 0.0
-0.0225796 0.00303473 0.0
-0.0235476 0.00299109 0.0
-0.024502 0.00294469 0.0
-0.0254419 0.0028958 0.0
-0.0263663 0.00284458 0.0
-0.0272743 0.00279117 0.0
-0.0281651 0.00273564 0.0
-0.0290378 0.002678 0.0
-0.0298917 0.00261823 0.0
-0.0307259 0.00255626 0.0
-0.0315396 0.002492 0.0
-0.0323319 0.00242531 0.0
-0.0331019 0.00235606 0.0
-0.0338488 0.00228407 0.0
-0.0345714 0.00220918 0.0
-0.0352689 0.00213119 0.0
-0.0359402 0.00204993 0.0
-0.0365841 0.0019652 0.0
-0.0371996 0.00187684 0.0
-0.0377853 0.00178469 0.0