# vtk DataFile Version 3.0
Lid-Driven Cavity Flow
ASCII
DATASET STRUCTURED_GRID
DIMENSIONS 129 129 1
POINTS 16641 double
0 0 0.0
0.0078125 0 0.0
0.015625 0 0.0
0.0234375 0 0.0
0.03125 0 0.0
0.0390625 0 0.0
0.046875 0 0.0
0.0546875 0 0.0
0.0625 0 0.0
0.0703125 0 0.0
0.078125 0 0.0
0.0859375 0 0.0
0.09375 0 0.0
0.101562 0 0.0
0.109375 0 0.0
0.117188 0 0.0
0.125 0 0.0
0.132812 0 0.0
0.140625 0 0.0
0.148438 0 0.0
0.15625 0 0.0
0.164062 0 0.0
0.171875 0 0.0
0.179688 0 0.0
0.1875 0 0.0
0.195312 0 0.0
0.203125 0 0.0
0.210938 0 0.0
0.21875 0 0.0
0.226562 0 0.0
0.234375 0 0.0
0.242188 0 0.0
0.25 0 0.0
0.257812 0 0.0
0.265625 0 0.0
0.273438 0 0.0
0.28125 0 0.0
0.289062 0 0.0
0.296875 0 0.0
0.304688 0 0.0
0.3125 0 0.0
0.320312 0 0.0
0.328125 0 0.0
0.335938 0 0.0
0.34375 0 0.0
0.351562 0 0.0
0.359375 0 0.0
0.367188 0 0.0
0.375 0 0.0
0.382812 0 0.0
0.390625 0 0.0
0.398438 0 0.0
0.40625 0 0.0
0.414062 0 0.0
0.421875 0 0.0
0.429688 0 0.0
0.4375 0 0.0
0.445312 0 0.0
0.453125 0 0.0
0.460938 0 0.0
0.46875 0 0.0
0.476562 0 0.0
0.484375 0 0.0
0.492188 0 0.0
0.5 0 0.0
0.507812 0 0.0
0.515625 0 0.0
0.523438 0 0.0
0.53125 0 0.0
0.539062 0 0.0
0.546875 0 0.0
0.554688 0 0.0
0.5625 0 0.0
0.570312 0 0.0
0.578125 0 0.0
0.585938 0 0.0
0.59375 0 0.0
0.601562 0 0.0
0.609375 0 0.0
0.617188 0 0.0
0.625 0 0.0
0.632812 0 0.0
0.640625 0 0.0
0.648438 0 0.0
0.65625 0 0.0
0.664062 0 0.0
0.671875 0 0.0
0.679688 0 0.0
0.6875 0 0.0
0.695312 0 0.0
0.703125 0 0.0
0.710938 0 0.0
0.71875 0 0.0
0.726562 0 0.0
0.734375 0 0.0
0.742188 0 0.0
0.75 0 0.0
0.757812 0 0.0
0.765625 0 0.0
0.773438 0 0.0
0.78125 0 0.0
0.789062 0 0.0
0.796875 0 0.0
0.804688 0 0.0
0.8125 0 0.0
0.820312 0 0.0
0.828125 0 0.0
0.835938 0 0.0
0.84375 0 0.0
0.851562 0 0.0
0.859375 0 0.0
0.867188 0 0.0
0.875 0 0.0
0.882812 0 0.0
0.890625 0 0.0
0.898438 0 0.0
0.90625 0 0.0
0.914062 0 0.0
0.921875 0 0.0
0.929688 0 0.0
0.9375 0 0.0
0.945312 0 0.0
0.953125 0 0.0
0.960938 0 0.0
0.96875 0 0.0
0.976562 0 0.0
0.984375 0 0.0
0.992188 0 0.0
1 0 0.0
0 0.0078125 0.0
0.0078125 0.0078125 0.0
0.015625 0.0078125 0.0
0.0234375 0.0078125 0.0
0.03125 0.0078125 0.0
0.0390625 0.0078125 0.0
0.046875 0.0078125 0.0
0.0546875 0.0078125 0.0
0.0625 0.0078125 0.0
0.0703125 0.0078125 0.0
0.078125 0.0078125 0.0
0.0859375 0.0078125 0.0
0.09375 0.0078125 0.0
0.101562 0.0078125 0.0
0.109375 0.0078125 0.0
0.117188 0.0078125 0.0
0.125 0.0078125 0.0
0.132812 0.0078125 0.0
0.140625 0.0078125 0.0
0.148438 0.0078125 0.0
0.15625 0.0078125 0.0
0.164062 0.0078125 0.0
0.171875 0.0078125 0.0
0.179688 0.0078125 0.0
0.1875 0.0078125 0.0
0.195312 0.0078125 0.0
0.203125 0.0078125 0.0
0.210938 0.0078125 0.0
0.21875 0.0078125 0.0
0.226562 0.0078125 0.0
0.234375 0.0078125 0.0
0.242188 0.0078125 0.0
0.25 0.0078125 0.0
0.257812 0.0078125 0.0
0.265625 0.0078125 0.0
0.273438 0.0078125 0.0
0.28125 0.0078125 0.0
0.289062 0.0078125 0.0
0.296875 0.0078125 0.0
0.304688 0.0078125 0.0
0.3125 0.0078125 0.0
0.320312 0.0078125 0.0
0.328125 0.0078125 0.0
0.335938 0.0078125 0.0
0.34375 0.0078125 0.0
0.351562 0.0078125 0.0
0.359375 0.0078125 0.0
0.367188 0.0078125 0.0
0.375 0.0078125 0.0
0.382812 0.0078125 0.0
0.390625 0.0078125 0.0
0.398438 0.0078125 0.0
0.40625 0.0078125 0.0
0.414062 0.0078125 0.0
0.421875 0.0078125 0.0
0.429688 0.0078125 0.0
0.4375 0.0078125 0.0
0.445312 0.0078125 0.0
0.453125 0.0078125 0.0
0.460938 0.0078125 0.0
0.46875 0.0078125 0.0
0.476562 0.0078125 0.0
0.484375 0.0078125 0.0
0.492188 0.0078125 0.0
0.5 0.0078125 0.0
0.507812 0.0078125 0.0
0.515625 0.0078125 0.0
0.523438 0.0078125 0.0
0.53125 0.0078125 0.0
0.539062 0.0078125 0.0
0.546875 0.0078125 0.0
0.554688 0.0078125 0.0
0.5625 0.0078125 0.0
0.570312 0.0078125 0.0
0.578125 0.0078125 0.0
0.585938 0.0078125 0.0
0.59375 0.0078125 0.0
0.601562 0.0078125 0.0
0.609375 0.0078125 0.0
0.617188 0.0078125 0.0
0.625 0.0078125 0.0
0.632812 0.0078125 0.0
0.640625 0.0078125 0.0
0.648438 0.0078125 0.0
0.65625 0.0078125 0.0
0.664062 0.0078125 0.0
0.671875 0.0078125 0.0
0.679688 0.0078125 0.0
0.6875 0.0078125 0.0
0.695312 0.0078125 0.0
0.703125 0.0078125 0.0
0.710938 0.0078125 0.0
0.71875 0.0078125 0.0
0.726562 0.0078125 0.0
0.734375 0.0078125 0.0
0.742188 0.0078125 0.0
0.75 0.0078125 0.0
0.757812 0.0078125 0.0
0.765625 0.0078125 0.0
0.773438 0.0078125 0.0
0.78125 0.0078125 0.0
0.789062 0.0078125 0.0
0.796875 0.0078125 0.0
0.804688 0.0078125 0.0
0.8125 0.0078125 0.0
0.820312 0.0078125 0.0
0.828125 0.0078125 0.0
0.835938 0.0078125 0.0
0.84375 0.0078125 0.0
0.851562 0.0078125 0.0
0.859375 0.0078125 0.0
0.867188 0.0078125 0.0
0.875 0.0078125 0.0
0.882812 0.0078125 0.0
0.890625 0.0078125 0.0
0.898438 0.0078125 0.0
0.90625 0.0078125 0.0
0.914062 0.0078125 0.0
0.921875 0.0078125 0.0
0.929688 0.0078125 0.0
0.9375 0.0078125 0.0
0.945312 0.0078125 0.0
0.953125 0.0078125 0.0
0.960938 0.0078125 0.0
0.96875 0.0078125 0.0
0.976562 0.0078125 0.0
0.984375 0.0078125 0.0
0.992188 0.0078125 0.0
1 0.0078125 0.0
0 0.015625 0.0
0.0078125 0.015625 0.0
0.015625 0.015625 0.0
0.0234375 0.015625 0.0
0.03125 0.015625 0.0
0.0390625 0.015625 0.0
0.046875 0.015625 0.0
0.0546875 0.015625 0.0
0.0625 0.015625 0.0
0.0703125 0.015625 0.0
0.078125 0.015625 0.0
0.0859375 0.015625 0.0
0.09375 0.015625 0.0
0.101562 0.015625 0.0
0.109375 0.015625 0.0
0.117188 0.015625 0.0
0.125 0.015625 0.0
0.132812 0.015625 0.0
0.140625 0.015625 0.0
0.148438 0.015625 0.0
0.15625 0.015625 0.0
0.164062 0.015625 0.0
0.171875 0.015625 0.0
0.179688 0.015625 0.0
0.1875 0.015625 0.0
0.195312 0.015625 0.0
0.203125 0.015625 0.0
0.210938 0.015625 0.0
0.21875 0.015625 0.0
0.226562 0.015625 0.0
0.234375 0.015625 0.0
0.242188 0.015625 0.0
0.25 0.015625 0.0
0.257812 0.015625 0.0
0.265625 0.015625 0.0
0.273438 0.015625 0.0
0.28125 0.015625 0.0
0.289062 0.015625 0.0
0.296875 0.015625 0.0
0.304688 0.015625 0.0
0.3125 0.015625 0.0
0.320312 0.015625 0.0
0.328125 0.015625 0.0
0.335938 0.015625 0.0
0.34375 0.015625 0.0
0.351562 0.015625 0.0
0.359375 0.015625 0.0
0.367188 0.015625 0.0
0.375 0.015625 0.0
0.382812 0.015625 0.0
0.390625 0.015625 0.0
0.398438 0.015625 0.0
0.40625 0.015625 0.0
0.414062 0.015625 0.0
0.421875 0.015625 0.0
0.429688 0.015625 0.0
0.4375 0.015625 0.0
0.445312 0.015625 0.0
0.453125 0.015625 0.0
0.460938 0.015625 0.0
0.46875 0.015625 0.0
0.476562 0.015625 0.0
0.484375 0.015625 0.0
0.492188 0.015625 0.0
0.5 0.015625 0.0
0.507812 0.015625 0.0
0.515625 0.015625 0.0
0.523438 0.015625 0.0
0.53125 0.015625 0.0
0.539062 0.015625 0.0
0.546875 0.015625 0.0
0.554688 0.015625 0.0
0.5625 0.015625 0.0
0.570312 0.015625 0.0
0.578125 0.015625 0.0
0.585938 0.015625 0.0
0.59375 0.015625 0.0
0.601562 0.015625 0.0
0.609375 0.015625 0.0
0.617188 0.015625 0.0
0.625 0.015625 0.0
0.632812 0.015625 0.0
0.640625 0.015625 0.0
0.648438 0.015625 0.0
0.65625 0.015625 0.0
0.664062 0.015625 0.0
0.671875 0.015625 0.0
0.679688 0.015625 0.0
0.6875 0.015625 0.0
0.695312 0.015625 0.0
0.703125 0.015625 0.0
0.710938 0.015625 0.0
0.71875 0.015625 0.0
0.726562 0.015625 0.0
0.734375 0.015625 0.0
0.742188 0.015625 0.0
0.75 0.015625 0.0
0.757812 0.015625 0.0
0.765625 0.015625 0.0
0.773438 0.015625 0.0
0.78125 0.015625 0.0
0.789062 0.015625 0.0
0.796875 0.015625 0.0
0.804688 0.015625 0.0
0.8125 0.015625 0.0
0.820312 0.015625 0.0
0.828125 0.015625 0.0
0.835938 0.015625 0.0
0.84375 0.015625 0.0
0.851562 0.015625 0.0
0.859375 0.015625 0.0
0.867188 0.015625 0.0
0.875 0.015625 0.0
0.882812 0.015625 0.0
0.890625 0.015625 0.0
0.898438 0.015625 0.0
0.90625 0.015625 0.0
0.914062 0.015625 0.0
0.921875 0.015625 0.0
0.929688 0.015625 0.0
0.9375 0.015625 0.0
0.945312 0.015625 0.0
0.953125 0.015625 0.0
0.960938 0.015625 0.0
0.96875 0.015625 0.0
0.976562 0.015625 0.0
0.984375 0.015625 0.0
0.992188 0.015625 0.0
1 0.015625 0.0
0 0.0234375 0.0
0.0078125 0.0234375 0.0
0.015625 0.0234375 0.0
0.0234375 0.0234375 0.0
0.03125 0.0234375 0.0
0.0390625 0.0234375 0.0
0.046875 0.0234375 0.0
0.0546875 0.0234375 0.0
0.0625 0.0234375 0.0
0.0703125 0.0234375 0.0
0.078125 0.0234375 0.0
0.0859375 0.0234375 0.0
0.09375 0.0234375 0.0
0.101562 0.0234375 0.0
0.109375 0.0234375 0.0
0.117188 0.0234375 0.0
0.125 0.0234375 0.0
0.132812 0.0234375 0.0
0.140625 0.0234375 0.0
0.148438 0.0234375 0.0
0.15625 0.0234375 0.0
0.164062 0.0234375 0.0
0.171875 0.0234375 0.0
0.179688 0.0234375 0.0
0.1875 0.0234375 0.0
0.195312 0.0234375 0.0
0.203125 0.0234375 0.0
0.210938 0.0234375 0.0
0.21875 0.0234375 0.0
0.226562 0.0234375 0.0
0.234375 0.0234375 0.0
0.242188 0.0234375 0.0
0.25 0.0234375 0.0
0.257812 0.0234375 0.0
0.265625 0.0234375 0.0
0.273438 0.0234375 0.0
0.28125 0.0234375 0.0
0.289062 0.0234375 0.0
0.296875 0.0234375 0.0
0.304688 0.0234375 0.0
0.3125 0.0234375 0.0
0.320312 0.0234375 0.0
0.328125 0.0234375 0.0
0.335938 0.0234375 0.0
0.34375 0.0234375 0.0
0.351562 0.0234375 0.0
0.359375 0.0234375 0.0
0.367188 0.0234375 0.0
0.375 0.0234375 0.0
0.382812 0.0234375 0.0
0.390625 0.0234375 0.0
0.398438 0.0234375 0.0
0.40625 0.0234375 0.0
0.414062 0.0234375 0.0
0.421875 0.0234375 0.0
0.429688 0.0234375 0.0
0.4375 0.0234375 0.0
0.445312 0.0234375 0.0
0.453125 0.0234375 0.0
0.460938 0.0234375 0.0
0.46875 0.0234375 0.0
0.476562 0.0234375 0.0
0.484375 0.0234375 0.0
0.492188 0.0234375 0.0
0.5 0.0234375 0.0
0.507812 0.0234375 0.0
0.515625 0.0234375 0.0
0.523438 0.0234375 0.0
0.53125 0.0234375 0.0
0.539062 0.0234375 0.0
0.546875 0.0234375 0.0
0.554688 0.0234375 0.0
0.5625 0.0234375 0.0
0.570312 0.0234375 0.0
0.578125 0.0234375 0.0
0.585938 0.0234375 0.0
0.59375 0.0234375 0.0
0.601562 0.0234375 0.0
0.609375 0.0234375 0.0
0.617188 0.0234375 0.0
0.625 0.0234375 0.0
0.632812 0.0234375 0.0
0.640625 0.0234375 0.0
0.648438 0.0234375 0.0
0.65625 0.0234375 0.0
0.664062 0.0234375 0.0
0.671875 0.0234375 0.0
0.679688 0.0234375 0.0
0.6875 0.0234375 0.0
0.695312 0.0234375 0.0
0.703125 0.0234375 0.0
0.710938 0.0234375 0.0
0.71875 0.0234375 0.0
0.726562 0.0234375 0.0
0.734375 0.0234375 0.0
0.742188 0.0234375 0.0
0.75 0.0234375 0.0
0.757812 0.0234375 0.0
0.765625 0.0234375 0.0
0.773438 0.0234375 0.0
0.78125 0.0234375 0.0
0.789062 0.0234375 0.0
0.796875 0.0234375 0.0
[...]
POINT_DATA 16641
VECTORS velocity double
0 0 0.0
0 0 0.0
0 0 0.0
0 0 0.0
0 0 0.0
0 0 0.0
0 0 0.0
0 0 0.0
0 0 0.0
0 0 0.0
0 0 0.0
0 0 0.0
0 0 0.0
0 0 0.0
0 0 0.0
0 0 0.0
0 0 0.0
0 0 0.0
0 0 0.0
0 0 0.0
0 0 0.0
0 0 0.0
0 0 0.0
0 0 0.0
0 0 0.0
0 0 0.0
0 0 0.0
0 0 0.0
0 0 0.0
0 0 0.0
0 0 0.0
0 0 0.0
0 0 0.0
0 0 0.0
0 0 0.0
0 0 0.0
0 0 0.0
0 0 0.0
0 0 0.0
0 0 0.0
0 0 0.0
0 0 0.0
0 0 0.0
0 0 0.0
0 0 0.0
0 0 0.0
0 0 0.0
0 0 0.0
0 0 0.0
0 0 0.0
0 0 0.0
0 0 0.0
0 0 0.0
0 0 0.0
0 0 0.0
0 0 0.0
0 0 0.0
0 0 0.0
0 0 0.0
0 0 0.0
0 0 0.0
0 0 0.0
0 0 0.0
0 0 0.0
0 0 0.0
0 0 0.0
0 0 0.0
0 0 0.0
0 0 0.0
0 0 0.0
0 0 0.0
0 0 0.0
0 0 0.0
0 0 0.0
0 0 0.0
0 0 0.0
0 0 0.0
0 0 0.0
0 0 0.0
0 0 0.0
0 0 0.0
0 0 0.0
0 0 0.0
0 0 0.0
0 0 0.0
0 0 0.0
0 0 0.0
0 0 0.0
0 0 0.0
0 0 0.0
0 0 0.0
0 0 0.0
0 0 0.0
0 0 0.0
0 0 0.0
0 0 0.0
0 0 0.0
0 0 0.0
0 0 0.0
0 0 0.0
0 0 0.0
0 0 0.0
0 0 0.0
0 0 0.0
0 0 0.0
0 0 0.0
0 0 0.0
0 0 0.0
0 0 0.0
0 0 0.0
0 0 0.0
0 0 0.0
0 0 0.0
0 0 0.0
0 0 0.0
0 0 0.0
0 0 0.0
0 0 0.0
0 0 0.0
0 0 0.0
0 0 0.0
0 0 0.0
0 0 0.0
0 0 0.0
0 0 0.0
0 0 0.0
0 0 0.0
0 0 0.0
0 0 0.0
0 0 0.0
-0.00236691 0.00233999 0.0
-0.00811645 0.00404331 0.0
-0.0157827 0.00482584 0.0
-0.0241915 0.00493724 0.0
-0.0325206 0.00463477 0.0
-0.0402448 0.00410373 0.0
-0.0470615 0.00346619 0.0
-0.0528255 0.00279981 0.0
-0.0574988 0.00215258 0.0
-0.0611128 0.00155277 0.0
-0.0637424 0.00101565 0.0
-0.0654867 0.000547882 0.0
-0.0664564 0.000150504 0.0
-0.0667649 -0.000179024 0.0
-0.066522 -0.000445426 0.0
-0.0658308 -0.000654643 0.0
-0.0647851 -0.000813165 0.0
-0.0634687 -0.000927586 0.0
-0.0619547 -0.0010043 0.0
-0.0603062 -0.0010493 0.0
-0.0585763 -0.00106808 0.0
-0.0568093 -0.00106558 0.0
-0.0550414 -0.00104613 0.0
-0.0533017 -0.0010135 0.0
-0.0516129 -0.000970919 0.0
-0.0499926 -0.000921096 0.0
-0.0484536 -0.000866279 0.0
-0.0470051 -0.000808307 0.0
-0.0456531 -0.000748653 0.0
-0.0444012 -0.000688478 0.0
-0.0432509 -0.000628674 0.0
-0.0422021 -0.000569906 0.0
-0.0412539 -0.000512652 0.0
-0.040404 -0.000457235 0.0
-0.03965 -0.000403853 0.0
-0.0389888 -0.000352604 0.0
-0.0384172 -0.000303511 0.0
-0.037932 -0.000256536 0.0
-0.0375298 -0.000211596 0.0
-0.0372076 -0.000168579 0.0
-0.0369624 -0.00012735 0.0
-0.0367913 -8.77621e-05 0.0
-0.0366918 -4.96609e-05 0.0
-0.0366616 -1.28914e-05 0.0
-0.0366985 2.26989e-05 0.0
-0.0368008 5.72572e-05 0.0
-0.0369667 9.09226e-05 0.0
-0.0371948 0.000123825 0.0
-0.0374841 0.000156083 0.0
-0.0378333 0.000187804 0.0
-0.0382417 0.000219084 0.0
-0.0387085 0.000250004 0.0
-0.0392331 0.000280635 0.0
-0.039815 0.000311031 0.0
-0.0404538 0.000341236 0.0
-0.0411491 0.000371278 0.0
-0.0419004 0.000401171 0.0
-0.0427074 0.000430913 0.0
-0.0435697 0.000460491 0.0
-0.0444867 0.000489871 0.0
-0.045458 0.000519007 0.0
-0.0464828 0.000547834 0.0
-0.0475602 0.000576271 0.0
-0.0486892 0.000604218 0.0
-0.0498686 0.000631556 0.0
-0.0510967 0.000658148 0.0
-0.0523718 0.000683835 0.0
-0.0536918 0.00070844 0.0
-0.055054 0.000731762 0.0
-0.0564557 0.00075358 0.0
-0.0578933 0.000773651 0.0
-0.059363 0.000791712 0.0
-0.0608606 0.000807476 0.0
-0.062381 0.000820637 0.0
-0.0639187 0.000830871 0.0
-0.0654676 0.000837833 0.0
-0.067021 0.000841163 0.0
-0.0685714 0.000840488 0.0
-0.0701107 0.000835423 0.0
-0.07163 0.000825578 0.0
-0.0731199 0.000810559 0.0
-0.0745702 0.000789976 0.0
-0.07597 0.000763446 0.0
-0.0773079 0.000730602 0.0
-0.0785717 0.0006911 0.0
-0.0797489 0.000644626 0.0
-0.0808264 0.000590907 0.0
-0.0817907 0.000529717 0.0
-0.0826281 0.000460892 0.0
-0.0833247 0.000384334 0.0
-0.0838667 0.000300026 0.0
-0.0842403 0.000208041 0.0
-0.0844321 0.000108553 0.0
-0.0844292 1.84471e-06 0.0
-0.0842194 -0.000111684 0.0
-0.0837916 -0.000231507 0.0
-0.0831355 -0.000356966 0.0
-0.0822425 -0.000487269 0.0
-0.0811055 -0.000621487 0.0
-0.0797192 -0.000758558 0.0
-0.0780806 -0.000897288 0.0
-0.0761887 -0.00103636 0.0
-0.0740452 -0.00117434 0.0
-0.0716543 -0.00130971 0.0
-0.0690231 -0.00144085 0.0
-0.0661616 -0.0015661 0.0
-0.0630827 -0.00168376 0.0
-0.0598026 -0.0017921 0.0
-0.0563401 -0.00188944 0.0
-0.0527173 -0.00197411 0.0
-0.048959 -0.00204451 0.0
-0.0450927 -0.00209913 0.0
-0.0411487 -0.00213657 0.0
-0.0371596 -0.00215552 0.0
-0.0331602 -0.00215477 0.0
-0.0291874 -0.00213318 0.0
-0.0252802 -0.00208964 0.0
-0.0214796 -0.00202296 0.0
-0.0178286 -0.00193179 0.0
-0.0143728 -0.00181442 0.0
-0.0111606 -0.00166857 0.0
-0.00824404 -0.00149119 0.0
-0.00567918 -0.00127835 0.0
-0.00352626 -0.00102579 0.0
-0.0018473 -0.000731702 0.0
-0.000697805 -0.000406405 0.0
-0.000103142 -0.000102386 0.0
0 0 0.0
0 0 0.0
-0.00420012 0.00811645 0.0
-0.0137721 0.0134158 0.0
-0.026497 0.0160751 0.0
-0.0406395 0.0167379 0.0
-0.0549097 0.0160532 0.0
-0.0684159 0.0145408 0.0
-0.0805939 0.0125808 0.0
-0.0911314 0.0104374 0.0
-0.0999003 0.00828727 0.0
-0.106901 0.00624355 0.0
-0.11222 0.00437385 0.0
-0.115995 0.00271406 0.0
-0.118396 0.0012782 0.0
-0.119602 6.55582e-05 0.0
-0.119794 -0.000934105 0.0
-0.119146 -0.00173688 0.0
-0.11782 -0.00236208 0.0
-0.115961 -0.00283037 0.0
-0.1137 -0.00316249 0.0
-0.111149 -0.00337845 0.0
-0.108407 -0.0034969 0.0
-0.105554 -0.00353488 0.0
-0.102659 -0.00350761 0.0
-0.0997785 -0.00342849 0.0
-0.0969559 -0.0033091 0.0
-0.0942265 -0.00315934 0.0
-0.0916172 -0.0029875 0.0
-0.089148 -0.00280049 0.0
-0.0868327 -0.0026039 0.0
-0.084681 -0.00240223 0.0
-0.0826981 -0.00219902 0.0
-0.0808868 -0.00199697 0.0
-0.079247 -0.00179811 0.0
-0.0777773 -0.00160388 0.0
-0.0764746 -0.00141524 0.0
-0.0753352 -0.00123279 0.0
-0.0743546 -0.00105682 0.0
-0.0735281 -0.000887383 0.0
-0.072851 -0.000724342 0.0
-0.0723184 -0.00056744 0.0
-0.0719256 -0.000416321 0.0
-0.0716684 -0.000270565 0.0
-0.0715425 -0.000129715 0.0
-0.0715442 6.70487e-06 0.0
-0.0716701 0.000139171 0.0
-0.0719172 0.000268149 0.0
-0.0722828 0.000394083 0.0
-0.0727644 0.000517392 0.0
-0.07336 0.000638457 0.0
-0.0740679 0.000757624 0.0
-0.0748865 0.000875196 0.0
-0.0758145 0.000991432 0.0
-0.0768507 0.00110655 0.0
-0.0779942 0.0012207 0.0
-0.0792439 0.00133402 0.0
-0.0805991 0.00144656 0.0
-0.0820588 0.00155833 0.0
-0.0836221 0.00166929 0.0
-0.0852879 0.00177935 0.0
-0.0870551 0.00188834 0.0
-0.0889221 0.00199605 0.0
-0.0908874 0.0021022 0.0
-0.0929488 0.00220644 0.0
-0.095104 0.00230837 0.0
-0.09735 0.00240749 0.0
-0.0996836 0.00250326 0.0
-0.102101 0.00259506 0.0
-0.104597 0.00268219 0.0
-0.107166 0.00276386 0.0
-0.109803 0.00283923 0.0
-0.112501 0.00290738 0.0
-0.115251 0.00296731 0.0
-0.118045 0.00301793 0.0
-0.120873 0.00305812 0.0
-0.123724 0.00308667 0.0
-0.126585 0.00310232 0.0
-0.129445 0.00310376 0.0
-0.132287 0.00308964 0.0
-0.135097 0.0030586 0.0
-0.137858 0.00300924 0.0
-0.140551 0.0029402 0.0
-0.143158 0.00285012 0.0
-0.145657 0.0027377 0.0
-0.148028 0.00260172 0.0
-0.150249 0.00244105 0.0
-0.152295 0.00225468 0.0
-0.154143 0.00204178 0.0
-0.155769 0.0018017 0.0
-0.157148 0.00153402 0.0
-0.158255 0.0012386 0.0
-0.159065 0.000915562 0.0
-0.159555 0.000565386 0.0
-0.159701 0.000188906 0.0
-0.15948 -0.000212651 0.0
-0.158872 -0.000637637 0.0
-0.157859 -0.00108397 0.0
-0.156422 -0.00154909 0.0
-0.154549 -0.00203001 0.0
-0.152228 -0.00252325 0.0
-0.149452 -0.00302487 0.0
-0.146216 -0.00353052 0.0
-0.142522 -0.00403543 0.0
-0.138374 -0.00453444 0.0
-0.133781 -0.0050221 0.0
-0.128759 -0.0054927 0.0
-0.123326 -0.00594033 0.0
-0.117508 -0.00635899 0.0
-0.111334 -0.00674264 0.0
-0.104841 -0.0070853 0.0
-0.0980681 -0.00738115 0.0
-0.0910615 -0.00762456 0.0
-0.0838717 -0.00781021 0.0
-0.0765534 -0.0079331 0.0
-0.0691658 -0.00798855 0.0
-0.0617722 -0.00797223 0.0
-0.0544394 -0.00787999 0.0
-0.0472379 -0.00770784 0.0
-0.0402417 -0.00745162 0.0
-0.0335281 -0.00710677 0.0
-0.0271785 -0.00666796 0.0
-0.0212782 -0.00612874 0.0
-0.0159168 -0.00548143 0.0
-0.0111881 -0.00471779 0.0
-0.00718802 -0.00383189 0.0
-0.0040102 -0.00282845 0.0
-0.00173433 -0.00174416 0.0
-0.000405044 -0.000697805 0.0
0 0 0.0
0 0 0.0
-0.00526221 0.0161121 0.0
-0.0172823 0.0263402 0.0
-0.0333577 0.0316932 0.0
-0.0514205 0.0333499 0.0
-0.0699052 0.0324112 0.0
-0.0876819 0.029788 0.0
-0.103991 0.0261817 0.0
-0.118374 0.0221062 0.0
-0.130603 0.0179222 0.0
-0.14062 0.0138721 0.0
-0.148488 0.0101097 0.0
-0.154348 0.00672381 0.0
-0.158391 0.00375689 0.0
-0.160828 0.0012192 0.0
-0.161884 -0.000900826 0.0
-0.161774 -0.0026287 0.0
-0.160707 -0.00399827 0.0
-0.158872 -0.00504758 0.0
-0.15644 -0.00581603 0.0
-0.153563 -0.00634234 0.0
-0.150373 -0.00666328 0.0
-0.146981 -0.00681282 0.0
-0.143482 -0.00682166 0.0
-0.139956 -0.0067171 0.0
-0.136465 -0.00652295 0.0
-0.133062 -0.00625973 0.0
-0.129786 -0.00594483 0.0
-0.126668 -0.00559281 0.0
-0.123731 -0.00521565 0.0
-0.120992 -0.00482308 0.0
-0.118462 -0.00442285 0.0
-0.116146 -0.00402101 0.0
-0.114049 -0.00362215 0.0
-0.11217 -0.00322967 0.0
-0.110508 -0.00284597 0.0
-0.10906 -0.00247262 0.0
-0.107822 -0.00211053 0.0
-0.106789 -0.00176012 0.0
-0.105956 -0.00142136 0.0
-0.105319 -0.00109395 0.0
-0.10487 -0.000777371 0.0
-0.104607 -0.000470921 0.0
-0.104524 -0.000173819 0.0
-0.104616 0.000114778 0.0
-0.104879 0.000395731 0.0
-0.105311 0.000669894 0.0
-0.105907 0.000938088 0.0
-0.106664 0.00120109 0.0
-0.107581 0.0014596 0.0
-0.108655 0.00171427 0.0
-0.109883 0.00196565 0.0
-0.111264 0.00221421 0.0
-0.112797 0.00246031 0.0
-0.114479 0.00270425 0.0
-0.11631 0.00294618 0.0
-0.118288 0.00318617 0.0
-0.120412 0.00342418 0.0
-0.122679 0.00366004 0.0
-0.125088 0.00389347 0.0
-0.127638 0.00412406 0.0
-0.130324 0.0043513 0.0
-0.133145 0.00457449 0.0
-0.136097 0.00479286 0.0
-0.139176 0.00500544 0.0
-0.142378 0.00521116 0.0
-0.145696 0.00540878 0.0
-0.149124 0.00559691 0.0
-0.152656 0.005774 0.0
-0.156282 0.00593837 0.0
-0.159993 0.00608816 0.0
-0.163779 0.00622136 0.0
-0.167628 0.00633585 0.0
-0.171525 0.00642931 0.0
-0.175458 0.00649935 0.0
-0.179409 0.00654341 0.0
-0.18336 0.00655887 0.0
-0.187293 0.00654299 0.0
-0.191186 0.00649301 0.0
-0.195017 0.00640611 0.0
-0.198761 0.00627949 0.0
-0.202393 0.00611037 0.0
-0.205887 0.00589608 0.0
-0.209212 0.00563406 0.0
-0.21234 0.00532193 0.0
-0.21524 0.00495757 0.0
-0.21788 0.00453912 0.0
-0.220226 0.00406512 0.0
-0.222247 0.0035345 0.0
-0.223908 0.0029467 0.0
-0.225178 0.00230174 0.0
-0.226022 0.00160023 0.0
-0.22641 0.000843503 0.0
-0.226312 3.36327e-05 0.0
-0.225697 -0.000826497 0.0
-0.224542 -0.00173315 0.0
-0.22282 -0.0026817 0.0
-0.220513 -0.0036666 0.0
-0.217604 -0.00468139 0.0
-0.21408 -0.00571868 0.0
-0.209934 -0.00677021 0.0
-0.205162 -0.00782684 0.0
-0.199769 -0.00887866 0.0
-0.193762 -0.00991505 0.0
-0.187158 -0.0109248 0.0
-0.179978 -0.0118962 0.0
-0.172251 -0.0128172 0.0
-0.164012 -0.0136756 0.0
-0.155303 -0.0144591 0.0
-0.146175 -0.0151557 0.0
-0.136683 -0.0157534 0.0
-0.126889 -0.0162409 0.0
-0.116862 -0.0166073 0.0
-0.106677 -0.0168424 0.0
-0.096415 -0.0169367 0.0
-0.0861608 -0.0168812 0.0
-0.0760053 -0.0166675 0.0
-0.0660434 -0.0162874 0.0
-0.0563748 -0.0157328 0.0
-0.0471033 -0.0149949 0.0
-0.0383369 -0.0140643 0.0
-0.0301875 -0.0129303 0.0
-0.022771 -0.0115813 0.0
-0.0162057 -0.0100072 0.0
-0.0106101 -0.00820367 0.0
-0.00609838 -0.0061854 0.0
-0.00277301 -0.00401156 0.0
-0.000717571 -0.00183671 0.0
0 0 0.0
0 0 0.0
-0.00577645 0.0253988 0.0
-0.0192214 0.0415112 0.0
-0.0374067 0.0502132 0.0
-0.0580709 0.0532854 0.0
-0.0794795 0.0523146 0.0
-0.100347 0.048627 0.0
-0.119776 0.0432731 0.0
-0.137187 0.0370488 0.0
-0.152261 0.0305329 0.0
-0.164876 0.0241287 0.0
-0.175054 0.0181024 0.0
-0.182918 0.0126167 0.0
-0.188653 0.00775821 0.0
-0.192484 0.00355863 0.0
-0.194651 1.18468e-05 0.0
-0.195397 -0.00291352 0.0
-0.194955 -0.00526459 0.0
-0.193544 -0.00709723 0.0
-0.191364 -0.00847106 0.0
-0.188593 -0.00944588 0.0
-0.185387 -0.0100793 0.0
-0.181883 -0.0104252 0.0
-0.178196 -0.0105326 0.0
-0.174424 -0.0104458 0.0
-0.170646 -0.0102033 0.0
-0.166929 -0.00983893 0.0
-0.163324 -0.00938135 0.0
-0.159873 -0.00885483 0.0
-0.156607 -0.0082795 0.0
-0.153551 -0.00767185 0.0
-0.15072 -0.00704518 0.0
-0.148127 -0.00641 0.0
-0.145778 -0.00577444 0.0
-0.143678 -0.00514462 0.0
-0.141826 -0.00452502 0.0
-0.140222 -0.00391871 0.0
-0.138863 -0.00332765 0.0
-0.137746 -0.00275292 0.0
-0.136866 -0.00219489 0.0
-0.136218 -0.00165339 0.0
-0.135799 -0.00112785 0.0
-0.135601 -0.000617413 0.0
-0.135623 -0.000121039 0.0
-0.135857 0.000362442 0.0
-0.136302 0.00083425 0.0
-0.136952 0.00129561 0.0
-0.137805 0.00174772 0.0
-0.138856 0.00219171 0.0
-0.140105 0.0026286 0.0
-0.141547 0.00305932 0.0
-0.14318 0.00348466 0.0
-0.145003 0.00390528 0.0
-0.147014 0.00432167 0.0
-0.149209 0.00473418 0.0
-0.151589 0.00514298 0.0
-0.15415 0.00554805 0.0
-0.15689 0.0059492 0.0
-0.159806 0.00634604 0.0
-0.162897 0.00673798 0.0
-0.166158 0.00712423 0.0
-0.169587 0.00750377 0.0
-0.173178 0.00787537 0.0
-0.176926 0.00823758 0.0
-0.180827 0.00858869 0.0
-0.184872 0.00892677 0.0
-0.189054 0.00924963 0.0
-0.193365 0.00955485 0.0
-0.197794 0.00983974 0.0
-0.202329 0.0101014 0.0
-0.206958 0.0103366 0.0
-0.211666 0.0105419 0.0
-0.216438 0.0107138 0.0
-0.221255 0.0108483 0.0
-0.226099 0.0109414 0.0
-0.230948 0.0109889 0.0
-0.235779 0.0109864 0.0
-0.240566 0.0109294 0.0
-0.245285 0.0108133 0.0
-0.249904 0.0106337 0.0
-0.254395 0.010386 0.0
-0.258725 0.0100659 0.0
-0.26286 0.00966899 0.0
-0.266765 0.00919143 0.0
-0.270403 0.00862957 0.0
-0.273737 0.00798022 0.0
-0.276727 0.00724073 0.0
-0.279335 0.00640906 0.0
-0.281521 0.00548394 0.0
-0.283245 0.0044649 0.0
-0.284468 0.00335246 0.0
-0.285153 0.00214816 0.0
-0.285263 0.000854696 0.0
-0.284763 -0.000523997 0.0
-0.28362 -0.00198268 0.0
-0.281806 -0.00351472 0.0
-0.279294 -0.00511208 0.0
-0.276062 -0.00676525 0.0
-0.272094 -0.00846328 0.0
-0.267378 -0.0101938 0.0
-0.261906 -0.0119429 0.0
-0.25568 -0.0136955 0.0
-0.248706 -0.0154354 0.0
-0.240996 -0.0171451 0.0
-0.232574 -0.0188063 0.0
-0.223466 -0.0203999 0.0
-0.21371 -0.0219065 0.0
-0.203351 -0.0233063 0.0
-0.192441 -0.0245793 0.0
-0.181041 -0.0257062 0.0
-0.169219 -0.0266676 0.0
-0.157052 -0.0274453 0.0
-0.144622 -0.0280216 0.0
-0.132021 -0.02838 0.0
-0.119345 -0.0285049 0.0
-0.106697 -0.028382 0.0
-0.0941851 -0.0279974 0.0
-0.0819243 -0.0273383 0.0
-0.070033 -0.0263917 0.0
-0.0586346 -0.0251448 0.0
-0.0478565 -0.0235838 0.0
-0.0378299 -0.0216946 0.0
-0.0286889 -0.0194633 0.0
-0.0205692 -0.0168787 0.0
-0.0136065 -0.0139392 0.0
-0.00793394 -0.0106655 0.0
-0.00368195 -0.00712497 0.0
-0.000983799 -0.00347082 0.0
0 0 0.0
0 0 0.0
-0.00594901 0.0353335 0.0
-0.0200899 0.0579704 0.0
-0.0394686 0.0705427 0.0
-0.0617445 0.0754227 0.0
-0.08509 0.0746877 0.0
-0.108122 0.0700841 0.0
-0.129843 0.063021 0.0
-0.149584 0.0545915 0.0
-0.166947 0.0456116 0.0
-0.181745 0.0366654 0.0
-0.193954 0.0281511 0.0
-0.203664 0.0203224 0.0
-0.211047 0.0133233 0.0
-0.216318 0.00721768 0.0
-0.219723 0.00201242 0.0
-0.221512 -0.00232468 0.0
-0.221932 -0.00585102 0.0
-0.221218 -0.00863886 0.0
-0.219587 -0.0107678 0.0
-0.217236 -0.0123192 0.0
-0.214339 -0.0133727 0.0
-0.211048 -0.0140035 0.0
-0.207495 -0.0142808 0.0
-0.203791 -0.0142672 0.0
-0.20003 -0.0140182 0.0
-0.19629 -0.0135821 0.0
-0.192632 -0.0130008 0.0
-0.189108 -0.0123094 0.0
-0.185757 -0.0115377 0.0
-0.182609 -0.0107102 0.0
-0.179689 -0.00984658 0.0
-0.177011 -0.00896287 0.0
-0.174589 -0.00807152 0.0
-0.172428 -0.00718207 0.0
-0.170533 -0.00630164 0.0
-0.168906 -0.00543533 0.0
-0.167546 -0.00458656 0.0
-0.166451 -0.00375742 0.0
-0.165619 -0.00294897 0.0
-0.165045 -0.00216141 0.0
-0.164727 -0.00139433 0.0
-0.164659 -0.000646881 0.0
-0.164838 8.21207e-05 0.0
-0.165261 0.000794056 0.0
-0.165922 0.00149042 0.0
-0.166819 0.00217272 0.0
-0.167948 0.00284247 0.0
-0.169307 0.00350107 0.0
-0.170892 0.00414983 0.0
-0.1727 0.00478989 0.0
-0.17473 0.00542222 0.0
-0.176979 0.00604758 0.0
-0.179444 0.00666654 0.0
-0.182124 0.00727941 0.0
-0.185015 0.00788627 0.0
-0.188115 0.00848691 0.0
-0.191421 0.00908089 0.0
-0.194929 0.00966746 0.0
-0.198636 0.0102456 0.0
-0.202537 0.0108139 0.0
-0.206627 0.0113708 0.0
-0.210901 0.0119142 0.0
-0.215351 0.0124418 0.0
-0.219969 0.012951 0.0
-0.224747 0.0134388 0.0
-0.229675 0.0139018 0.0
-0.23474 0.0143362 0.0
-0.23993 0.0147379 0.0
-0.24523 0.0151026 0.0
-0.250625 0.0154255 0.0
-0.256095 0.0157014 0.0
-0.261621 0.0159249 0.0
-0.267182 0.0160904 0.0
-0.272753 0.0161917 0.0
-0.278309 0.0162229 0.0
-0.283822 0.0161774 0.0
-0.289262 0.0160489 0.0
-0.294597 0.0158309 0.0
-0.299793 0.0155168 0.0
-0.304815 0.0151004 0.0
-0.309624 0.0145755 0.0
-0.314182 0.0139362 0.0
-0.318447 0.0131772 0.0
-0.322378 0.0122936 0.0
-0.325932 0.0112813 0.0
-0.329065 0.0101371 0.0
-0.331732 0.00885841 0.0
-0.333891 0.00744415 0.0
-0.335496 0.00589428 0.0
-0.336506 0.00421023 0.0
-0.336879 0.00239493 0.0
-0.336575 0.000452991 0.0
-0.335558 -0.00160921 0.0
-0.333793 -0.00378342 0.0
-0.331249 -0.00605942 0.0
-0.327901 -0.008425 0.0
-0.323727 -0.0108659 0.0
-0.31871 -0.0133659 0.0
-0.31284 -0.0159066 0.0
-0.306114 -0.0184679 0.0
-0.298535 -0.0210277 0.0
-0.290112 -0.0235625 0.0
-0.280864 -0.0260471 0.0
-0.270818 -0.0284552 0.0
-0.260009 -0.0307596 0.0
-0.24848 -0.0329322 0.0
-0.236283 -0.0349449 0.0
-0.223479 -0.0367693 0.0
-0.21014 -0.0383776 0.0
-0.196341 -0.0397425 0.0
-0.182171 -0.0408377 0.0
-0.167724 -0.041638 0.0
-0.153101 -0.0421199 0.0
-0.138414 -0.042261 0.0
-0.123776 -0.0420408 0.0
-0.109312 -0.0414397 0.0
-0.0951485 -0.0404395 0.0
-0.081419 -0.0390225 0.0
-0.0682612 -0.0371715 0.0
-0.0558169 -0.034869 0.0
-0.0442313 -0.0320978 0.0
-0.0336521 -0.028842 0.0
-0.024229 -0.0250896 0.0
-0.0161131 -0.020839 0.0
-0.00945793 -0.0161099 0.0
-0.00442403 -0.0109617 0.0
-0.00119322 -0.00551866 0.0
0 0 0.0
0 0 0.0
-0.00591544 0.0454886 0.0
-0.0202517 0.0750308 0.0
-0.0401567 0.0918679 0.0
-0.0633002 0.0989068 0.0
-0.0878228 0.0986919 0.0
-0.112287 0.0933798 0.0
-0.135631 0.0847353 0.0
-0.157116 0.0741526 0.0
-0.176278 0.0626936 0.0
-0.192872 0.0511356 0.0
-0.206827 0.0400219 0.0
-0.218196 0.0297097 0.0
-0.227123 0.0204122 0.0
-0.23381 0.0122349 0.0
-0.238493 0.00520505 0.0
-0.24142 -0.00070481 0.0
-0.242843 -0.00555837 0.0
-0.243002 -0.00944172 0.0
-0.242123 -0.0124529 0.0
-0.240413 -0.0146943 0.0
-0.238058 -0.0162673 0.0
-0.235221 -0.017269 0.0
-0.232044 -0.0177894 0.0
-0.22865 -0.0179103 0.0
-0.225142 -0.0177049 0.0
-0.221607 -0.0172373 0.0
-0.218116 -0.0165632 0.0
-0.214728 -0.0157301 0.0
-0.211489 -0.0147778 0.0
-0.208437 -0.0137398 0.0
-0.205599 -0.0126432 0.0
-0.202998 -0.01151 0.0
-0.20065 -0.0103577 0.0
-0.198565 -0.00919988 0.0
-0.196751 -0.00804674 0.0
-0.195214 -0.00690587 0.0
-0.193954 -0.00578255 0.0
-0.192972 -0.00468026 0.0
-0.192267 -0.00360099 0.0
-0.191838 -0.00254562 0.0
-0.191682 -0.00151412 0.0
-0.191797 -0.00050583 0.0
-0.192178 0.000480392 0.0
-0.192823 0.00144599 0.0
-0.19373 0.00239257 0.0
-0.194894 0.00332185 0.0
-0.196313 0.0042355 0.0
-0.197985 0.00513512 0.0
-0.199906 0.00602217 0.0
-0.202074 0.00689791 0.0
-0.204486 0.0077634 0.0
-0.207139 0.00861941 0.0
-0.210032 0.00946644 0.0
-0.213161 0.0103047 0.0
-0.216523 0.011134 0.0
-0.220115 0.0119538 0.0
-0.223932 0.0127634 0.0
-0.227971 0.0135614 0.0
-0.232227 0.0143462 0.0
-0.236693 0.0151158 0.0
-0.241364 0.0158677 0.0
-0.246231 0.0165988 0.0
-0.251286 0.0173059 0.0
-0.256519 0.0179852 0.0
-0.261919 0.0186322 0.0
-0.267473 0.0192423 0.0
-0.273167 0.0198102 0.0
-0.278986 0.0203301 0.0
-0.284911 0.020796 0.0
-0.290923 0.0212011 0.0
-0.297001 0.0215386 0.0
-0.303121 0.0218008 0.0
-0.309258 0.0219802 0.0
-0.315384 0.0220686 0.0
-0.321469 0.0220578 0.0
-0.327481 0.0219392 0.0
-0.333386 0.0217043 0.0
-0.339148 0.0213445 0.0
-0.344728 0.0208515 0.0
-0.350086 0.0202169 0.0
-0.355181 0.0194329 0.0
-0.359969 0.0184922 0.0
-0.364404 0.017388 0.0
-0.368442 0.0161145 0.0
-0.372035 0.0146668 0.0
-0.375137 0.0130411 0.0
-0.377699 0.011235 0.0
-0.379676 0.0092478 0.0
-0.38102 0.00708023 0.0
-0.381688 0.00473508 0.0
-0.381636 0.00221715 0.0
-0.380824 -0.000466558 0.0
-0.379213 -0.00330667 0.0
-0.37677 -0.00629138 0.0
-0.373464 -0.0094063 0.0
-0.36927 -0.0126345 0.0
-0.364168 -0.0159563 0.0
-0.358142 -0.0193495 0.0
-0.351185 -0.0227894 0.0
-0.343296 -0.0262488 0.0
-0.334482 -0.0296981 0.0
-0.324756 -0.0331059 0.0
-0.314141 -0.0364387 0.0